LAMMPS data file via write_data, version 2 Aug 2023, timestep = 284, units = metal

9568 atoms
3 atom types

0 311.75413514866267 xlo xhi
0 86.3958451797204 ylo yhi
0 50 zlo zhi
0 0 0 xy xz yz

Masses

1 95.94
2 32.065
3 32.065

Atoms # atomic

1 3 1.558769847833277 0.8999567377583664 1.5454399971227961 0 0 0
2 3 4.676311198561333 0.8999567376952052 1.5454399970841899 0 0 0
3 3 7.793852547842555 0.8999567375265698 1.5454399969508532 0 0 0
4 3 10.911393894581094 0.8999567373080848 1.545439996696621 0 0 0
5 3 14.028935240600555 0.8999567375180944 1.5454399971925987 0 0 0
6 3 17.146476596652676 0.8999567389919008 1.5454399992175964 0 0 0
145 3 20.264017993974175 0.8999567437115739 1.545439996870562 0 0 0
146 3 23.381559502868726 0.8999567565984706 1.5454399952799815 0 0 0
7 3 3.1175405232999034 3.599826899602209 1.5454399971090753 0 0 0
8 3 6.235081873466712 3.599826899493206 1.5454399970367338 0 0 0
9 3 9.3526232215438 3.599826899272841 1.545439996820842 0 0 0
10 3 12.470164567303394 3.5998268991770295 1.5454399967385506 0 0 0
11 3 15.587705916124316 3.599826899900184 1.5454399981672422 0 0 0
12 3 18.705247286801647 3.599826902548636 1.5454399991574668 0 0 0
147 3 21.822788728738825 3.5998269107632046 1.545439993570221 0 0 0
148 3 24.940330324085384 3.5998269275294255 1.5454400121198233 0 0 0
13 3 1.5587698478328822 6.299697061490718 1.5454399971235409 0 0 0
14 3 4.676311198560259 6.2996970614280245 1.545439997084047 0 0 0
15 3 7.793852547843168 6.299697061259221 1.5454399969507766 0 0 0
16 3 10.911393894581128 6.299697061040465 1.545439996696847 0 0 0
17 3 14.028935240600406 6.299697061250521 1.5454399971927393 0 0 0
18 3 17.14647659665292 6.29969706272409 1.5454399992176415 0 0 0
149 3 20.264017993974065 6.299697067443959 1.545439996870754 0 0 0
150 3 23.38155950286864 6.299697080330969 1.5454399952801043 0 0 0
19 3 3.1175405232999345 8.999567223335003 1.5454399971098247 0 0 0
20 3 6.23508187346667 8.999567223225924 1.5454399970367507 0 0 0
21 3 9.352623221544233 8.999567223005302 1.5454399968207622 0 0 0
22 3 12.470164567303065 8.999567222909361 1.5454399967385823 0 0 0
23 3 15.58770591612413 8.999567223633 1.5454399981672449 0 0 0
24 3 18.705247286801665 8.999567226281206 1.545439999157424 0 0 0
151 3 21.82278872873894 8.99956723449569 1.545439993570466 0 0 0
152 3 24.940330324085572 8.999567251262137 1.545440012119522 0 0 0
25 3 1.5587698478330663 11.699437385223407 1.5454399971226245 0 0 0
26 3 4.676311198560585 11.699437385160032 1.5454399970838961 0 0 0
27 3 7.793852547843151 11.699437384992457 1.5454399969506822 0 0 0
28 3 10.911393894580872 11.6994373847727 1.5454399966966559 0 0 0
29 3 14.028935240600624 11.69943738498299 1.5454399971928288 0 0 0
30 3 17.146476596653017 11.699437386456824 1.545439999217545 0 0 0
153 3 20.264017993974093 11.699437391176453 1.5454399968707928 0 0 0
154 3 23.38155950286865 11.699437404063534 1.5454399952799762 0 0 0
93 3 3.1175405232997035 14.39930754706766 1.5454399971090704 0 0 0
95 3 6.235081873467102 14.399307546958637 1.5454399970370507 0 0 0
97 3 9.352623221543489 14.39930754673766 1.5454399968206785 0 0 0
98 3 12.47016456730327 14.399307546641941 1.5454399967387462 0 0 0
100 3 15.587705916124605 14.399307547365563 1.5454399981672258 0 0 0
102 3 18.70524728680152 14.399307550013615 1.545439999157393 0 0 0
176 3 21.822788728738868 14.399307558228353 1.5454399935705763 0 0 0
178 3 24.940330324085576 14.399307574994562 1.5454400121194696 0 0 0
91 3 1.558769847832686 17.099177708955313 1.5454399971229498 0 0 0
92 3 4.676311198561138 17.09917770889298 1.5454399970838588 0 0 0
94 3 7.7938525478427705 17.09917770872427 1.5454399969503896 0 0 0
96 3 10.911393894580929 17.09917770850556 1.5454399966969103 0 0 0
99 3 14.028935240600976 17.099177708715622 1.545439997192705 0 0 0
101 3 17.14647659665277 17.099177710189213 1.5454399992175494 0 0 0
175 3 20.26401799397407 17.099177714909068 1.5454399968708499 0 0 0
177 3 23.381559502868722 17.09917772779616 1.5454399952799474 0 0 0
103 3 3.117540523300176 19.799047870799647 1.5454399971097699 0 0 0
104 3 6.235081873467154 19.79904787069102 1.5454399970367294 0 0 0
105 3 9.352623221543888 19.799047870470154 1.5454399968207928 0 0 0
106 3 12.470164567303247 19.79904787037471 1.545439996738569 0 0 0
107 3 15.587705916124353 19.799047871097734 1.5454399981672458 0 0 0
108 3 18.70524728680163 19.79904787374612 1.5454399991576817 0 0 0
179 3 21.822788728739074 19.79904788196086 1.5454399935701313 0 0 0
180 3 24.940330324085494 19.799047898726908 1.5454400121197562 0 0 0
31 2 1.558769847832342 0.8999567377580312 4.663253336210345 0 0 0
32 2 4.676311198560808 0.8999567376948098 4.663253336257237 0 0 0
33 1 3.1175405232682505 1.7999134897408142 3.104346666669004 0 0 0
34 2 7.7938525478845335 0.8999567375377943 4.663253336353035 0 0 0
35 1 6.235081873394914 1.7999134898641171 3.1043466666713018 0 0 0
37 1 9.352623221459814 1.799913490129736 3.104346666601886 0 0 0
36 2 10.911393894542961 0.8999567372940397 4.663253336464382 0 0 0
38 1 12.470164567195168 1.7999134903645795 3.1043466666288646 0 0 0
39 2 14.028935239815638 0.8999567373436538 4.66325333690429 0 0 0
40 1 15.587705916603577 1.7999134896351636 3.1043466676886866 0 0 0
41 2 17.146476597559573 0.8999567393856439 4.663253336654449 0 0 0
42 1 18.705247291789227 1.7999134858765469 3.10434666675649 0 0 0
155 2 20.264018003145868 0.8999567452803644 4.66325332692878 0 0 0
156 1 21.822788737409883 1.7999134768491267 3.104346655570711 0 0 0
157 2 23.381559494899072 0.8999567524511771 4.663253311026061 0 0 0
158 1 24.940330311004114 1.7999134623275637 3.1043466641114685 0 0 0
43 1 1.55876984782077 4.499783651582855 3.1043466666669666 0 0 0
44 1 4.676311198508795 4.499783651652478 3.1043466666725976 0 0 0
45 2 3.117540523297279 3.5998268996015024 4.663253336227239 0 0 0
46 1 7.793852547760038 4.499783651846112 3.1043466666510335 0 0 0
47 2 6.235081873479606 3.599826899496545 4.663253336301408 0 0 0
49 2 9.352623221599512 3.5998268992865494 4.663253336402341 0 0 0
48 1 10.91139389449139 4.49978365215016 3.104346666554323 0 0 0
50 2 12.470164566955706 3.5998268990844857 4.663253336607337 0 0 0
51 1 14.028935240561808 4.4997836520906445 3.1043466670050055 0 0 0
52 2 15.587705915379237 3.599826899813385 4.663253337188269 0 0 0
53 1 17.146476598701575 4.4997836501605635 3.104346668080294 0 0 0
54 2 18.70524729165176 3.5998269037552717 4.663253333717798 0 0 0
159 1 20.264018002251138 4.499783643971989 3.1043466622831106 0 0 0
160 2 21.82278873640458 3.59982691081685 4.663253317334415 0 0 0
161 1 23.381559504744715 4.499783632038715 3.1043466526151637 0 0 0
162 2 24.940330284572784 3.599826918423996 4.6632533184342835 0 0 0
55 2 1.5587698478313279 6.299697061490307 4.663253336209668 0 0 0
56 2 4.676311198560034 6.29969706142723 4.663253336257352 0 0 0
57 1 3.1175405232668325 7.199653813474129 3.104346666669379 0 0 0
58 2 7.793852547885296 6.299697061270524 4.663253336353142 0 0 0
59 1 6.235081873394765 7.19965381359621 3.104346666671183 0 0 0
61 1 9.352623221460622 7.199653813862375 3.1043466666017676 0 0 0
60 2 10.911393894543002 6.299697061026192 4.663253336464272 0 0 0
62 1 12.470164567194644 7.199653814096881 3.1043466666288704 0 0 0
63 2 14.028935239815441 6.2996970610759995 4.66325333690406 0 0 0
64 1 15.587705916603737 7.1996538133672345 3.1043466676886826 0 0 0
65 2 17.146476597559765 6.299697063117962 4.6632533366543605 0 0 0
66 1 18.705247291789483 7.199653809609163 3.1043466667564803 0 0 0
163 2 20.264018003145868 6.299697069012738 4.663253326928542 0 0 0
164 1 21.822788737409834 7.19965380058158 3.104346655570726 0 0 0
165 2 23.38155949489908 6.299697076183736 4.663253311026017 0 0 0
166 1 24.940330311004068 7.199653786059601 3.104346664111469 0 0 0
67 1 1.5587698478212524 9.899523975313716 3.104346666666512 0 0 0
68 1 4.676311198508128 9.899523975385094 3.10434666667277 0 0 0
69 2 3.117540523296849 8.999567223334159 4.663253336226583 0 0 0
70 1 7.793852547760165 9.899523975578706 3.1043466666509576 0 0 0
71 2 6.2350818734800315 8.999567223229267 4.6632533363014534 0 0 0
73 2 9.352623221599835 8.999567223019055 4.663253336402303 0 0 0
72 1 10.911393894491455 9.899523975882483 3.104346666554459 0 0 0
74 2 12.4701645669554 8.999567222816857 4.6632533366075135 0 0 0
75 1 14.02893524056142 9.899523975823266 3.1043466670050375 0 0 0
76 2 15.5877059153791 8.999567223546133 4.663253337188231 0 0 0
77 1 17.146476598701856 9.899523973893354 3.1043466680802245 0 0 0
78 2 18.70524729165179 8.999567227487804 4.663253333717744 0 0 0
167 1 20.264018002251266 9.899523967704685 3.1043466622831124 0 0 0
168 2 21.822788736404778 8.999567234549364 4.6632533173342265 0 0 0
169 1 23.381559504744107 9.899523955770997 3.1043466526151926 0 0 0
170 2 24.940330284572976 8.999567242156644 4.66325331843463 0 0 0
79 2 1.5587698478326557 11.699437385223048 4.663253336210563 0 0 0
80 2 4.676311198559695 11.699437385159683 4.6632533362572115 0 0 0
81 1 3.117540523267333 12.59939413720587 3.104346666669248 0 0 0
82 2 7.793852547885496 11.699437385003462 4.663253336353222 0 0 0
83 1 6.235081873394804 12.599394137329117 3.104346666671024 0 0 0
85 1 9.352623221460576 12.599394137595194 3.104346666601817 0 0 0
84 2 10.911393894542632 11.699437384758486 4.663253336464352 0 0 0
86 1 12.470164567194553 12.599394137829426 3.10434666662888 0 0 0
87 2 14.028935239815647 11.699437384808487 4.663253336904078 0 0 0
88 1 15.587705916603639 12.599394137100083 3.1043466676886586 0 0 0
89 2 17.146476597559925 11.699437386850699 4.66325333665445 0 0 0
90 1 18.70524729178957 12.59939413334185 3.1043466667565296 0 0 0
171 2 20.26401800314575 11.699437392745276 4.663253326928564 0 0 0
172 1 21.822788737409688 12.599394124314134 3.104346655570723 0 0 0
173 2 23.381559494899037 11.69943739991623 4.663253311026085 0 0 0
174 1 24.940330311004086 12.599394109792238 3.104346664111482 0 0 0
110 1 1.5587698478207845 15.299264299046937 3.104346666667156 0 0 0
112 1 4.676311198509179 15.299264299117699 3.104346666672461 0 0 0
113 2 3.1175405232970848 14.399307547066803 4.663253336227184 0 0 0
115 1 7.7938525477602365 15.299264299311508 3.104346666651001 0 0 0
116 2 6.235081873480246 14.399307546962229 4.663253336301422 0 0 0
119 2 9.352623221599263 14.399307546751203 4.663253336402471 0 0 0
118 1 10.911393894491008 15.299264299615064 3.10434666655443 0 0 0
120 2 12.470164566955527 14.399307546549439 4.663253336607237 0 0 0
122 1 14.028935240561838 15.299264299555967 3.104346667005013 0 0 0
123 2 15.587705915379605 14.3993075472786 4.663253337188303 0 0 0
125 1 17.146476598701824 15.299264297626205 3.1043466680802565 0 0 0
126 2 18.70524729165163 14.399307551220208 4.66325333371776 0 0 0
182 1 20.26401800225109 15.299264291437236 3.10434666228311 0 0 0
183 2 21.822788736404682 14.399307558281926 4.66325331733419 0 0 0
185 1 23.38155950474375 15.299264279503651 3.1043466526151704 0 0 0
186 2 24.940330284573086 14.39930756588902 4.663253318434692 0 0 0
109 2 1.5587698478309089 17.099177708955523 4.663253336210554 0 0 0
111 2 4.676311198560376 17.099177708892338 4.663253336257386 0 0 0
127 1 3.1175405232671176 17.999134460939302 3.1043466666693504 0 0 0
114 2 7.79385254788474 17.099177708735695 4.663253336353414 0 0 0
129 1 6.235081873394829 17.999134461061946 3.104346666671124 0 0 0
131 1 9.352623221459918 17.999134461327703 3.1043466666018635 0 0 0
117 2 10.911393894542748 17.09917770849114 4.6632533364640825 0 0 0
133 1 12.470164567194969 17.999134461561923 3.1043466666287993 0 0 0
121 2 14.028935239815999 17.0991777085412 4.66325333690415 0 0 0
135 1 15.58770591660384 17.99913446083269 3.1043466676886258 0 0 0
124 2 17.14647659755971 17.099177710583156 4.663253336654443 0 0 0
137 1 18.705247291789178 17.99913445707439 3.104346666756516 0 0 0
181 2 20.26401800314583 17.099177716477783 4.66325332692845 0 0 0
184 2 23.38155949489923 17.099177723648836 4.663253311026109 0 0 0
187 1 21.822788737409347 17.99913444804627 3.1043466555707178 0 0 0
189 1 24.940330311004033 17.999134433525192 3.104346664111445 0 0 0
139 1 1.5587698478211085 20.6990046227794 3.104346666666669 0 0 0
128 2 3.1175405232973503 19.79904787079906 4.663253336226744 0 0 0
140 1 4.676311198508034 20.699004622850335 3.1043466666725035 0 0 0
130 2 6.2350818734801905 19.799047870694107 4.6632533363013255 0 0 0
141 1 7.793852547760506 20.69900462304388 3.104346666651066 0 0 0
132 2 9.35262322159947 19.799047870483896 4.663253336402298 0 0 0
134 2 12.470164566955678 19.79904787028205 4.663253336607477 0 0 0
142 1 10.91139389449095 20.699004623347875 3.104346666554407 0 0 0
136 2 15.587705915379308 19.799047871010902 4.663253337188211 0 0 0
143 1 14.028935240561918 20.699004623288307 3.10434666700501 0 0 0
144 1 17.146476598701966 20.69900462135866 3.104346668080352 0 0 0
138 2 18.705247291651894 19.799047874952574 4.663253333717525 0 0 0
191 1 20.26401800225033 20.69900461516983 3.1043466622830733 0 0 0
188 2 21.82278873640472 19.799047882014357 4.663253317334629 0 0 0
192 1 23.381559504744516 20.699004603236173 3.1043466526151673 0 0 0
190 2 24.940330284572894 19.799047889621544 4.663253318434324 0 0 0
193 3 1.5587698478335936 22.498918032688493 1.5454399971218753 0 0 0
194 3 4.676311198560645 22.49891803262567 1.5454399970841057 0 0 0
195 3 7.793852547842836 22.498918032456984 1.5454399969506416 0 0 0
196 3 10.911393894580929 22.498918032237913 1.5454399966967258 0 0 0
197 3 14.028935240600719 22.49891803244796 1.545439997192541 0 0 0
198 3 17.146476596652835 22.498918033921786 1.5454399992177212 0 0 0
337 3 20.264017993974 22.498918038641516 1.5454399968707326 0 0 0
338 3 23.381559502868573 22.498918051528587 1.5454399952800224 0 0 0
199 3 3.117540523299844 25.1987881945327 1.545439997109102 0 0 0
200 3 6.235081873467623 25.198788194423557 1.5454399970367727 0 0 0
201 3 9.352623221543615 25.198788194202617 1.5454399968204864 0 0 0
202 3 12.470164567302941 25.198788194106925 1.5454399967388102 0 0 0
203 3 15.587705916124238 25.198788194830342 1.5454399981671971 0 0 0
204 3 18.70524728680146 25.198788197478667 1.545439999157531 0 0 0
339 3 21.822788728738953 25.19878820569327 1.5454399935704919 0 0 0
340 3 24.940330324085384 25.198788222459594 1.5454400121196152 0 0 0
205 3 1.5587698478340333 27.898658356420004 1.5454399971217967 0 0 0
206 3 4.676311198560472 27.898658356358244 1.5454399970839852 0 0 0
207 3 7.7938525478425955 27.898658356189337 1.5454399969506027 0 0 0
208 3 10.911393894580879 27.898658355970266 1.5454399966970362 0 0 0
209 3 14.028935240600886 27.89865835618071 1.545439997192648 0 0 0
210 3 17.146476596652928 27.898658357654266 1.5454399992176275 0 0 0
341 3 20.264017993973898 27.898658362373926 1.5454399968709078 0 0 0
342 3 23.381559502868527 27.898658375261142 1.5454399952798434 0 0 0
241 3 3.1175405233000486 30.598528518265642 1.5454399971091666 0 0 0
242 3 6.235081873467294 30.59852851815599 1.5454399970369281 0 0 0
243 3 9.352623221543679 30.598528517935225 1.545439996820961 0 0 0
244 3 12.470164567303165 30.598528517839675 1.5454399967387937 0 0 0
245 3 15.587705916124447 30.598528518563157 1.5454399981673141 0 0 0
246 3 18.70524728680169 30.5985285212114 1.5454399991574577 0 0 0
353 3 21.822788728738953 30.598528529425998 1.5454399935702097 0 0 0
354 3 24.940330324085217 30.598528546192238 1.5454400121196894 0 0 0
247 3 1.5587698478336482 33.298398680153056 1.5454399971213069 0 0 0
248 3 4.676311198560718 33.29839868009093 1.5454399970838668 0 0 0
249 3 7.793852547842649 33.298398679922194 1.545439996950246 0 0 0
250 3 10.91139389458075 33.29839867970317 1.5454399966968304 0 0 0
251 3 14.02893524060102 33.298398679912935 1.5454399971926571 0 0 0
252 3 17.146476596652892 33.298398681386686 1.5454399992173327 0 0 0
355 3 20.26401799397396 33.2983986861063 1.5454399968704218 0 0 0
356 3 23.381559502868416 33.29839869899345 1.5454399952796805 0 0 0
253 3 3.117540523300045 35.998268841997785 1.5454399971086374 0 0 0
254 3 6.235081873467127 35.99826884188858 1.5454399970366122 0 0 0
255 3 9.352623221543386 35.99826884166778 1.5454399968206607 0 0 0
256 3 12.470164567303026 35.99826884157208 1.5454399967390133 0 0 0
257 3 15.587705916124685 35.99826884229552 1.5454399981672555 0 0 0
258 3 18.70524728680146 35.998268844943446 1.5454399991575036 0 0 0
357 3 21.822788728738715 35.99826885315809 1.5454399935706535 0 0 0
358 3 24.940330324085473 35.99826886992453 1.5454400121195455 0 0 0
259 3 1.5587698478345395 38.698139003885046 1.5454399971202597 0 0 0
260 3 4.676311198560466 38.69813900382278 1.545439997083824 0 0 0
261 3 7.793852547842901 38.698139003654006 1.5454399969504287 0 0 0
262 3 10.911393894580712 38.698139003435465 1.5454399966965637 0 0 0
263 3 14.028935240600793 38.69813900364546 1.5454399971924815 0 0 0
264 3 17.146476596652832 38.69813900511928 1.5454399992173764 0 0 0
359 3 20.264017993973916 38.69813900983891 1.5454399968707806 0 0 0
360 3 23.3815595028685 38.698139022726245 1.5454399952801625 0 0 0
265 3 3.1175405233006384 41.39800916572912 1.5454399971091743 0 0 0
266 3 6.235081873466591 41.39800916562092 1.5454399970370472 0 0 0
267 3 9.35262322154379 41.39800916539973 1.545439996821066 0 0 0
268 3 12.47016456730329 41.398009165304366 1.5454399967388222 0 0 0
269 3 15.587705916124392 41.398009166027656 1.545439998167273 0 0 0
270 3 18.70524728680158 41.39800916867577 1.5454399991575989 0 0 0
361 3 21.82278872873892 41.39800917689066 1.545439993570337 0 0 0
362 3 24.940330324085362 41.39800919365694 1.5454400121193246 0 0 0
211 2 1.558769847832279 22.498918032687847 4.663253336211526 0 0 0
212 2 4.676311198559518 22.4989180326251 4.66325333625716 0 0 0
217 1 3.117540523267513 23.398874784670213 3.104346666669363 0 0 0
213 2 7.793852547884871 22.49891803246824 4.663253336353175 0 0 0
219 1 6.235081873394951 23.398874784794273 3.1043466666710864 0 0 0
221 1 9.352623221459877 23.398874785060276 3.1043466666018387 0 0 0
214 2 10.911393894542659 22.49891803222371 4.663253336464308 0 0 0
223 1 12.470164567194931 23.39887478529484 3.1043466666288015 0 0 0
215 2 14.028935239815786 22.498918032273593 4.663253336904251 0 0 0
225 1 15.587705916604065 23.398874784565244 3.104346667688698 0 0 0
216 2 17.14647659755989 22.498918034315487 4.663253336654309 0 0 0
227 1 18.70524729178931 23.398874780806793 3.1043466667565016 0 0 0
343 2 20.264018003145722 22.498918040210267 4.663253326928564 0 0 0
344 2 23.381559494899054 22.49891804738134 4.663253311026082 0 0 0
345 1 21.822788737409685 23.398874771779447 3.1043466555706836 0 0 0
347 1 24.940330311004033 23.398874757257538 3.1043466641114605 0 0 0
230 1 1.5587698478205736 26.09874494651181 3.104346666667073 0 0 0
218 2 3.117540523297063 25.198788194531662 4.663253336227378 0 0 0
232 1 4.676311198508787 26.09874494658292 3.1043466666725603 0 0 0
220 2 6.235081873480767 25.198788194426765 4.663253336301496 0 0 0
235 1 7.793852547760679 26.098744946776733 3.1043466666510344 0 0 0
222 2 9.352623221599364 25.19878819421628 4.663253336402498 0 0 0
224 2 12.470164566955258 25.198788194014316 4.663253336607257 0 0 0
238 1 10.911393894491088 26.098744947080963 3.104346666554419 0 0 0
226 2 15.587705915379294 25.198788194743404 4.66325333718832 0 0 0
239 1 14.02893524056147 26.098744947020894 3.1043466670050357 0 0 0
233 1 17.146476598702495 26.09874494509087 3.1043466680802925 0 0 0
228 2 18.705247291651737 25.198788198685175 4.663253333717645 0 0 0
350 1 20.264018002251063 26.098744938902502 3.104346662283067 0 0 0
346 2 21.822788736404718 25.1987882057468 4.663253317334247 0 0 0
352 1 23.381559504744107 26.098744926968322 3.1043466526151606 0 0 0
348 2 24.940330284572862 25.198788213354163 4.663253318434467 0 0 0
229 2 1.5587698478328749 27.898658356419777 4.663253336211434 0 0 0
231 2 4.676311198559707 27.8986583563575 4.663253336257373 0 0 0
331 1 3.1175405232675844 28.798615108403467 3.1043466666692545 0 0 0
234 2 7.793852547884647 27.898658356200755 4.663253336353308 0 0 0
333 1 6.235081873394802 28.79861510852682 3.1043466666709856 0 0 0
334 1 9.352623221460094 28.798615108792696 3.1043466666019297 0 0 0
237 2 10.911393894542565 27.89865835595602 4.663253336463889 0 0 0
336 1 12.470164567194592 28.798615109027043 3.1043466666287967 0 0 0
240 2 14.028935239815926 27.898658356006194 4.6632533369041935 0 0 0
335 1 15.587705916603946 28.798615108297888 3.104346667688635 0 0 0
236 2 17.146476597559786 27.898658358048092 4.66325333665439 0 0 0
332 1 18.705247291789462 28.798615104539138 3.104346666756528 0 0 0
349 2 20.26401800314562 27.898658363942676 4.66325332692842 0 0 0
351 2 23.381559494898998 27.898658371113857 4.663253311026186 0 0 0
383 1 21.8227887374096 28.798615095511746 3.1043466555707258 0 0 0
384 1 24.940330311004352 28.798615080989904 3.1043466641115014 0 0 0
271 1 1.5587698478200591 31.498485270244263 3.1043466666668444 0 0 0
272 1 4.676311198508972 31.49848527031472 3.104346666672584 0 0 0
273 2 3.1175405232972806 30.598528518264573 4.663253336227271 0 0 0
274 1 7.793852547760551 31.498485270508347 3.1043466666510953 0 0 0
275 2 6.235081873480633 30.59852851815929 4.663253336301409 0 0 0
277 2 9.35262322159919 30.59852851794895 4.6632533364021524 0 0 0
276 1 10.911393894490967 31.4984852708124 3.1043466665544193 0 0 0
278 2 12.470164566955543 30.59852851774704 4.663253336607317 0 0 0
279 1 14.02893524056179 31.498485270753225 3.1043466670050295 0 0 0
280 2 15.587705915379408 30.598528518476243 4.663253337188078 0 0 0
281 1 17.146476598701618 31.498485268823348 3.1043466680802876 0 0 0
282 2 18.705247291651812 30.59852852241789 4.66325333371771 0 0 0
363 1 20.26401800225056 31.498485262634514 3.104346662283056 0 0 0
364 2 21.822788736404743 30.59852852947953 4.663253317334438 0 0 0
365 1 23.381559504744693 31.498485250701137 3.1043466526151637 0 0 0
366 2 24.940330284572777 30.598528537086736 4.66325331843444 0 0 0
283 2 1.5587698478325371 33.29839868015243 4.66325333621173 0 0 0
284 2 4.676311198560022 33.298398680090074 4.663253336257328 0 0 0
285 1 3.117540523267669 34.198355432135756 3.1043466666690405 0 0 0
286 2 7.793852547884856 33.298398679933435 4.663253336353564 0 0 0
287 1 6.235081873394752 34.19835543225945 3.104346666671256 0 0 0
289 1 9.35262322146065 34.198355432525396 3.1043466666018102 0 0 0
288 2 10.911393894542513 33.29839867968878 4.663253336464256 0 0 0
290 1 12.47016456719489 34.198355432760415 3.1043466666288397 0 0 0
291 2 14.028935239815985 33.29839867973845 4.663253336904198 0 0 0
292 1 15.587705916603593 34.19835543203036 3.104346667688678 0 0 0
293 2 17.14647659755991 33.29839868178056 4.663253336654604 0 0 0
294 1 18.705247291789206 34.19835542827255 3.104346666756474 0 0 0
367 2 20.26401800314573 33.29839868767514 4.6632533269289125 0 0 0
368 1 21.822788737409656 34.19835541924548 3.104346655570763 0 0 0
369 2 23.38155949489907 33.29839869484627 4.663253311026308 0 0 0
370 1 24.94033031100453 34.19835540472269 3.1043466641114623 0 0 0
295 1 1.558769847818825 36.898225593977024 3.104346666667164 0 0 0
296 1 4.676311198508919 36.8982255940477 3.104346666672515 0 0 0
297 2 3.1175405232978544 35.99826884199679 4.663253336227625 0 0 0
298 1 7.79385254776037 36.89822559424189 3.104346666651118 0 0 0
299 2 6.235081873480297 35.99826884189201 4.663253336301648 0 0 0
301 2 9.352623221599115 35.99826884168136 4.663253336402439 0 0 0
300 1 10.911393894491033 36.89822559454517 3.104346666554295 0 0 0
302 2 12.470164566955406 35.99826884147948 4.663253336606995 0 0 0
303 1 14.028935240561667 36.898225594485574 3.104346667005132 0 0 0
304 2 15.58770591537964 35.998268842208596 4.663253337188185 0 0 0
305 1 17.146476598701934 36.89822559255612 3.104346668080279 0 0 0
306 2 18.705247291651574 35.99826884615003 4.663253333717679 0 0 0
371 1 20.264018002251277 36.89822558636743 3.104346662283038 0 0 0
372 2 21.822788736404462 35.998268853211684 4.663253317334061 0 0 0
373 1 23.381559504744427 36.8982255744343 3.1043466526151997 0 0 0
374 2 24.94033028457288 35.99826886081906 4.663253318434548 0 0 0
307 2 1.5587698478330523 38.69813900388524 4.663253336212977 0 0 0
308 2 4.676311198559994 38.698139003822526 4.663253336257654 0 0 0
309 1 3.1175405232687177 39.59809575586972 3.1043466666691746 0 0 0
310 2 7.79385254788499 38.69813900366548 4.663253336353478 0 0 0
311 1 6.2350818733951465 39.598095755992865 3.104346666671089 0 0 0
313 1 9.352623221460114 39.59809575625861 3.1043466666018324 0 0 0
312 2 10.91139389454263 38.6981390034212 4.663253336464544 0 0 0
314 1 12.470164567194836 39.5980957564933 3.104346666628857 0 0 0
315 2 14.02893523981586 38.698139003471056 4.663253336904373 0 0 0
316 1 15.587705916603706 39.59809575576339 3.104346667688607 0 0 0
317 2 17.146476597559822 38.698139005513184 4.663253336654719 0 0 0
318 1 18.70524729178966 39.5980957520049 3.1043466667564847 0 0 0
375 2 20.26401800314569 38.698139011407825 4.663253326928486 0 0 0
376 1 21.822788737409667 39.598095742976724 3.104346655570717 0 0 0
377 2 23.38155949489895 38.69813901857887 4.6632533110258425 0 0 0
378 1 24.940330311004377 39.59809572845433 3.1043466641114885 0 0 0
319 1 1.5587698478203635 42.29796591771201 3.1043466666667743 0 0 0
320 1 4.676311198508557 42.29796591778042 3.104346666672555 0 0 0
321 2 3.1175405232971793 41.39800916572883 4.663253336227174 0 0 0
322 1 7.7938525477603475 42.29796591797397 3.1043466666509905 0 0 0
323 2 6.235081873479738 41.39800916562407 4.6632533363010245 0 0 0
325 2 9.352623221599314 41.39800916541342 4.663253336402015 0 0 0
324 1 10.911393894490548 42.297965918277804 3.104346666554422 0 0 0
326 2 12.470164566955733 41.398009165211754 4.663253336607229 0 0 0
327 1 14.028935240562046 42.297965918218495 3.1043466670049984 0 0 0
328 2 15.58770591537929 41.39800916594074 4.663253337188184 0 0 0
329 1 17.146476598702108 42.297965916289144 3.104346668080258 0 0 0
330 2 18.70524729165161 41.39800916988236 4.663253333717598 0 0 0
379 1 20.26401800225092 42.2979659101004 3.104346662283074 0 0 0
380 2 21.82278873640478 41.39800917694432 4.663253317334462 0 0 0
381 1 23.38155950474395 42.29796589816696 3.1043466526151353 0 0 0
382 2 24.940330284572966 41.39800918455178 4.663253318434865 0 0 0
385 3 1.5587698478326104 44.09787932761867 1.5454399971241894 0 0 0
386 3 4.676311198560948 44.0978793275556 1.5454399970840007 0 0 0
387 3 7.793852547842754 44.097879327387275 1.5454399969508057 0 0 0
388 3 10.91139389458102 44.09787932716818 1.545439996696889 0 0 0
389 3 14.028935240600688 44.097879327378365 1.5454399971927582 0 0 0
390 3 17.146476596652874 44.09787932885192 1.54543999921787 0 0 0
529 3 20.264017993974097 44.09787933357161 1.545439996871086 0 0 0
530 3 23.381559502868672 44.097879346458754 1.5454399952802076 0 0 0
391 3 3.1175405232998465 46.797749489462774 1.5454399971095252 0 0 0
392 3 6.235081873466978 46.79774948935338 1.5454399970368609 0 0 0
393 3 9.35262322154376 46.79774948913283 1.5454399968203592 0 0 0
394 3 12.470164567303186 46.797749489036974 1.5454399967386652 0 0 0
395 3 15.587705916124408 46.797749489760335 1.5454399981669742 0 0 0
396 3 18.705247286801676 46.79774949240885 1.545439999157148 0 0 0
531 3 21.822788728738878 46.79774950062342 1.545439993569925 0 0 0
532 3 24.940330324085412 46.797749517389704 1.5454400121194531 0 0 0
397 3 1.5587698478334113 49.49761965135061 1.545439997122077 0 0 0
398 3 4.676311198560652 49.49761965128817 1.5454399970841273 0 0 0
399 3 7.793852547843074 49.49761965111927 1.5454399969504564 0 0 0
400 3 10.9113938945811 49.49761965090015 1.5454399966967125 0 0 0
401 3 14.02893524060058 49.497619651110156 1.5454399971925954 0 0 0
402 3 17.146476596652835 49.497619652584056 1.5454399992176673 0 0 0
533 3 20.264017993974306 49.4976196573038 1.5454399968707568 0 0 0
534 3 23.38155950286864 49.49761967019097 1.5454399952800022 0 0 0
403 3 3.1175405233000926 52.19748981319516 1.5454399971090411 0 0 0
404 3 6.235081873466504 52.197489813086 1.545439997036802 0 0 0
405 3 9.352623221543814 52.19748981286507 1.5454399968209933 0 0 0
406 3 12.47016456730325 52.19748981276944 1.5454399967392778 0 0 0
407 3 15.587705916124557 52.19748981349291 1.5454399981676086 0 0 0
408 3 18.705247286801757 52.197489816141314 1.5454399991576102 0 0 0
535 3 21.822788728738818 52.19748982435588 1.5454399935702428 0 0 0
536 3 24.940330324085554 52.19748984112244 1.545440012119747 0 0 0
409 3 1.5587698478345757 54.89735997508277 1.5454399971210777 0 0 0
410 3 4.676311198560238 54.89735997502068 1.5454399970840862 0 0 0
411 3 7.793852547842992 54.89735997485238 1.5454399969509482 0 0 0
412 3 10.911393894581106 54.89735997463316 1.5454399966967869 0 0 0
413 3 14.028935240600475 54.89735997484337 1.5454399971926442 0 0 0
414 3 17.146476596652946 54.897359976317134 1.5454399992178949 0 0 0
537 3 20.264017993974434 54.89735998103668 1.5454399968707868 0 0 0
538 3 23.381559502868782 54.89735999392388 1.545439995280256 0 0 0
477 3 3.1175405233000046 57.59723013692763 1.5454399971091926 0 0 0
479 3 6.235081873466784 57.59723013681896 1.545439997037066 0 0 0
481 3 9.352623221543512 57.59723013659782 1.5454399968207686 0 0 0
482 3 12.4701645673033 57.59723013650226 1.5454399967387074 0 0 0
484 3 15.587705916124703 57.59723013722579 1.5454399981671731 0 0 0
486 3 18.70524728680152 57.597230139873695 1.5454399991573127 0 0 0
560 3 21.822788728738903 57.597230148088286 1.545439993570226 0 0 0
562 3 24.940330324085316 57.59723016485473 1.5454400121187966 0 0 0
475 3 1.558769847833896 60.297100298815856 1.5454399971223907 0 0 0
476 3 4.676311198561145 60.297100298753946 1.5454399970837622 0 0 0
478 3 7.793852547842731 60.297100298584965 1.5454399969507626 0 0 0
480 3 10.911393894581108 60.297100298365734 1.5454399966971866 0 0 0
483 3 14.028935240600694 60.29710029857586 1.545439997192664 0 0 0
485 3 17.146476596652743 60.297100300049514 1.545439999217621 0 0 0
559 3 20.264017993974015 60.297100304769195 1.5454399968708665 0 0 0
561 3 23.381559502868672 60.29710031765582 1.5454399952800422 0 0 0
487 3 3.117540523299267 62.99697046066107 1.5454399971089907 0 0 0
488 3 6.235081873466457 62.996970460551445 1.5454399970366413 0 0 0