LAMMPS data file via write_data, version 2 Aug 2023, timestep = 823, units = metal

9280 atoms
3 atom types

0 311.7529086616214 xlo xhi
0 86.39566695544896 ylo yhi
0 50 zlo zhi
0 0 0 xy xz yz

Masses

1 95.94
2 32.065
3 32.065

Atoms # atomic

1 3 1.5587681386291832 0.8999557343376813 1.5454368639722005 0 0 0
2 3 4.676318164919658 0.8999566632210498 1.5454378253572685 0 0 0
3 3 7.79386903265011 0.8999559161329563 1.5454469529085009 0 0 0
4 3 10.911410887669309 0.8999552200541501 1.5454493221648602 0 0 0
5 3 14.028957041448272 0.8999572704046167 1.5454326958392492 0 0 0
6 3 17.146511014558836 0.8999573408513583 1.5454225702450148 0 0 0
145 3 20.26405752545892 0.8999564569488802 1.5454306127733235 0 0 0
146 3 23.381601555552344 0.8999560451362012 1.5454451241967178 0 0 0
7 3 3.117542362993903 3.599820792241871 1.5454366727758508 0 0 0
8 3 6.23509443395244 3.5998211836042975 1.5454415729926214 0 0 0
9 3 9.352640730137699 3.5998197955101547 1.5454506611589096 0 0 0
10 3 12.470182316167998 3.5998207318972737 1.5454423288060448 0 0 0
11 3 15.587734382525673 3.5998223327763132 1.5454251166930317 0 0 0
12 3 18.70528547461454 3.599821331264188 1.545425027923071 0 0 0
147 3 21.822829091404373 3.599820890490767 1.5454374603257033 0 0 0
148 3 24.9403717041177 3.5998201123024467 1.5454528845379516 0 0 0
13 3 1.5587681386289993 6.299684919053401 1.5454368639722904 0 0 0
14 3 4.67631816491968 6.299685847936552 1.5454378253571692 0 0 0
15 3 7.79386903265013 6.299685100848481 1.5454469529085515 0 0 0
16 3 10.911410887669213 6.299684404769641 1.5454493221648342 0 0 0
17 3 14.028957041448272 6.299686455120147 1.5454326958392686 0 0 0
18 3 17.146511014558847 6.299686525566865 1.545422570244958 0 0 0
149 3 20.26405752545886 6.299685641664453 1.5454306127733253 0 0 0
150 3 23.381601555552393 6.299685229851726 1.5454451241967335 0 0 0
19 3 3.117542362993823 8.999549976957407 1.545436672775843 0 0 0
20 3 6.235094433952555 8.999550368319978 1.5454415729926096 0 0 0
21 3 9.35264073013777 8.99954898022572 1.5454506611589447 0 0 0
22 3 12.470182316168087 8.999549916612953 1.5454423288060157 0 0 0
23 3 15.587734382525593 8.999551517491874 1.5454251166930582 0 0 0
24 3 18.705285474614506 8.99955051597977 1.545425027923086 0 0 0
151 3 21.822829091404365 8.999550075206336 1.5454374603256749 0 0 0
152 3 24.940371704117645 8.999549297018058 1.5454528845380056 0 0 0
25 3 1.5587681386291228 11.699414103768772 1.54543686397249 0 0 0
26 3 4.676318164919509 11.699415032652107 1.5454378253571683 0 0 0
27 3 7.79386903265002 11.699414285564037 1.5454469529085706 0 0 0
28 3 10.91141088766935 11.699413589485212 1.545449322164855 0 0 0
29 3 14.028957041448304 11.699415639835784 1.5454326958392808 0 0 0
30 3 17.146511014558786 11.699415710282413 1.5454225702449713 0 0 0
153 3 20.264057525458888 11.699414826379966 1.545430612773293 0 0 0
154 3 23.381601555552308 11.699414414567293 1.5454451241967284 0 0 0
93 3 3.11754236299378 14.399279161673006 1.5454366727759674 0 0 0
95 3 6.2350944339524 14.399279553035507 1.5454415729925497 0 0 0
97 3 9.35264073013769 14.399278164941238 1.5454506611589531 0 0 0
98 3 12.470182316168108 14.399279101328466 1.5454423288060484 0 0 0
100 3 15.58773438252563 14.399280702207506 1.5454251166930528 0 0 0
102 3 18.705285474614495 14.399279700695379 1.5454250279230386 0 0 0
176 3 21.822829091404383 14.399279259921913 1.5454374603256902 0 0 0
178 3 24.940371704117663 14.399278481733628 1.5454528845379787 0 0 0
91 3 1.5587681386289551 17.09914328848439 1.5454368639723584 0 0 0
92 3 4.6763181649194125 17.099144217367673 1.5454378253571797 0 0 0
94 3 7.79386903265 17.099143470279646 1.5454469529085768 0 0 0
96 3 10.911410887669263 17.099142774200804 1.545449322164863 0 0 0
99 3 14.028957041448324 17.099144824551306 1.5454326958392428 0 0 0
101 3 17.146511014558744 17.09914489499802 1.5454225702449742 0 0 0
175 3 20.264057525458853 17.09914401109558 1.5454306127733175 0 0 0
177 3 23.381601555552326 17.099143599282794 1.5454451241966989 0 0 0
103 3 3.1175423629938193 19.799008346388423 1.5454366727758018 0 0 0
104 3 6.23509443395245 19.799008737751066 1.5454415729925985 0 0 0
105 3 9.352640730137708 19.799007349656872 1.5454506611589534 0 0 0
106 3 12.470182316168097 19.799008286044042 1.5454423288059607 0 0 0
107 3 15.587734382525674 19.799009886923077 1.5454251166930664 0 0 0
108 3 18.705285474614495 19.799008885410988 1.5454250279230568 0 0 0
179 3 21.82282909140434 19.79900844463755 1.5454374603256897 0 0 0
180 3 24.940371704117673 19.799007666449132 1.5454528845379638 0 0 0
31 2 1.5587684845047658 0.8999562371819632 4.663250341583001 0 0 0
32 2 4.676313802847823 0.8999553438303016 4.663251256588561 0 0 0
33 1 3.117542109473183 1.7999087231906263 3.104343263078766 0 0 0
34 2 7.793860154412924 0.8999563155246135 4.663260225868209 0 0 0
35 1 6.235090159266446 1.7999086218795948 3.104348033963823 0 0 0
37 1 9.352639599490429 1.7999085260843843 3.1043579900967124 0 0 0
36 2 10.911419107043839 0.8999578305264788 4.663262341733734 0 0 0
38 1 12.470190289804869 1.7999088390802032 3.1043488323371675 0 0 0
39 2 14.028973453733474 0.8999561142908602 4.663246003381017 0 0 0
40 1 15.587738413003226 1.7999096790120659 3.104331034438117 0 0 0
41 2 17.146510073581876 0.8999555335527251 4.663236696789967 0 0 0
42 1 18.705281234027037 1.799910438518025 3.104332795027629 0 0 0
155 2 20.264045993572083 0.8999564822911335 4.663244761193769 0 0 0
156 1 21.822822879459473 1.7999097436570155 3.104344152621603 0 0 0
157 2 23.3815864853696 0.899955559613197 4.663259062388566 0 0 0
158 1 24.940364723650326 1.7999095226042008 3.104359985970016 0 0 0
43 1 1.5587683223494728 4.499773333247356 3.104343675202684 0 0 0
44 1 4.676316019774442 4.4997732768034915 3.1043442022259806 0 0 0
45 2 3.1175418222559013 3.5998203765136862 4.663250136029245 0 0 0
46 1 7.793864632973345 4.499773146547543 3.104353844394335 0 0 0
47 2 6.235085752495577 3.5998200641995752 4.663254951959538 0 0 0
49 2 9.352638362379787 3.5998219635064763 4.663263796266662 0 0 0
48 1 10.911414916793882 4.499773202429476 3.1043565615576165 0 0 0
50 2 12.470198594330508 3.599821861116721 4.663255359719666 0 0 0
51 1 14.0289650622693 4.499773793462693 3.1043384888244616 0 0 0
52 2 15.58774330053028 3.599819953786959 4.663238811587798 0 0 0
53 1 17.146510504070537 4.499774737491669 3.1043295102691344 0 0 0
54 2 18.705277422658064 3.5998208313506015 4.663239363647461 0 0 0
159 1 20.264051862239306 4.499774887144787 3.104338061047233 0 0 0
160 2 21.822815598810088 3.59982054517332 4.663251544614348 0 0 0
161 1 23.381593460303918 4.4997739968070745 3.104351595980609 0 0 0
162 2 24.94035690577429 3.5998204143424863 4.66326700162314 0 0 0
55 2 1.558768484504642 6.299685421897572 4.663250341582849 0 0 0
56 2 4.676313802847693 6.29968452854589 4.66325125658867 0 0 0
57 1 3.117542109473598 7.199637907906101 3.1043432630787695 0 0 0
58 2 7.79386015441291 6.29968550024012 4.663260225868179 0 0 0
59 1 6.235090159266601 7.199637806595055 3.1043480339638196 0 0 0
61 1 9.352639599490542 7.19963771079988 3.1043579900967204 0 0 0
60 2 10.91141910704387 6.299687015242042 4.663262341733717 0 0 0
62 1 12.47019028980483 7.199638023795809 3.104348832337128 0 0 0
63 2 14.028973453733455 6.299685299006337 4.663246003380926 0 0 0
64 1 15.587738413003272 7.199638863727638 3.104331034438155 0 0 0
65 2 17.146510073581897 6.299684718268248 4.663236696789964 0 0 0
66 1 18.70528123402701 7.199639623233508 3.104332795027613 0 0 0
163 2 20.264045993572093 6.299685667006665 4.663244761193732 0 0 0
164 1 21.82282287945946 7.199638928372669 3.104344152621561 0 0 0
165 2 23.381586485369578 6.299684744328682 4.663259062388569 0 0 0
166 1 24.94036472365023 7.199638707319749 3.104359985970041 0 0 0
67 1 1.5587683223496038 9.89950251796314 3.1043436752025446 0 0 0
68 1 4.676316019774436 9.899502461519047 3.1043442022260423 0 0 0
69 2 3.117541822255953 8.999549561229372 4.663250136029361 0 0 0
70 1 7.79386463297338 9.899502331263006 3.1043538443943897 0 0 0
71 2 6.235085752495613 8.999549248915228 4.663254951959497 0 0 0
73 2 9.352638362379963 8.999551148222094 4.663263796266704 0 0 0
72 1 10.911414916793943 9.899502387145192 3.104356561557629 0 0 0
74 2 12.470198594330597 8.999551045832316 4.663255359719703 0 0 0
75 1 14.02896506226927 9.89950297817832 3.1043384888244545 0 0 0
76 2 15.587743300530175 8.999549138502585 4.663238811587826 0 0 0
77 1 17.146510504070488 9.899503922207142 3.104329510269173 0 0 0
78 2 18.705277422658078 8.999550016066168 4.663239363647466 0 0 0
167 1 20.26405186223925 9.899504071860363 3.104338061047225 0 0 0
168 2 21.822815598810124 8.999549729888914 4.663251544614351 0 0 0
169 1 23.3815934603039 9.899503181522652 3.104351595980592 0 0 0
170 2 24.94035690577425 8.99954959905805 4.6632670016231295 0 0 0
79 2 1.5587684845047836 11.69941460661289 4.663250341582849 0 0 0
80 2 4.6763138028476545 11.699413713261446 4.663251256588633 0 0 0
81 1 3.117542109473481 12.599367092621526 3.104343263078774 0 0 0
82 2 7.79386015441279 11.699414684955784 4.663260225868205 0 0 0
83 1 6.235090159266517 12.599366991310701 3.1043480339638254 0 0 0
85 1 9.352639599490539 12.599366895515445 3.1043579900967018 0 0 0
84 2 10.911419107043974 11.699416199957593 4.66326234173378 0 0 0
86 1 12.470190289804911 12.599367208511387 3.1043488323372164 0 0 0
87 2 14.028973453733455 11.699414483721977 4.663246003380981 0 0 0
88 1 15.587738413003272 12.599368048443276 3.1043310344381414 0 0 0
89 2 17.146510073581826 11.69941390298386 4.663236696789944 0 0 0
90 1 18.70528123402697 12.599368807949089 3.1043327950275708 0 0 0
171 2 20.264045993572065 11.699414851722233 4.663244761193735 0 0 0
172 1 21.822822879459416 12.599368113088168 3.104344152621569 0 0 0
173 2 23.381586485369542 11.699413929044267 4.663259062388534 0 0 0
174 1 24.940364723650166 12.59936789203534 3.1043599859700226 0 0 0
110 1 1.5587683223498432 15.299231702678707 3.104343675202505 0 0 0
112 1 4.676316019774504 15.29923164623458 3.104344202226088 0 0 0
113 2 3.117541822255685 14.399278745945042 4.663250136029235 0 0 0
115 1 7.793864632973244 15.299231515978647 3.1043538443943377 0 0 0
116 2 6.235085752495531 14.399278433630677 4.663254951959543 0 0 0
119 2 9.352638362379773 14.399280332937659 4.663263796266707 0 0 0
118 1 10.9114149167939 15.299231571860643 3.104356561557623 0 0 0
120 2 12.470198594330595 14.39928023054785 4.663255359719747 0 0 0
122 1 14.02896506226929 15.29923216289386 3.104338488824487 0 0 0
123 2 15.587743300530219 14.399278323218203 4.663238811587793 0 0 0
125 1 17.146510504070463 15.299233106922774 3.1043295102691206 0 0 0
126 2 18.705277422658042 14.399279200781745 4.663239363647454 0 0 0
182 1 20.26405186223927 15.299233256575912 3.1043380610472133 0 0 0
183 2 21.822815598810166 14.399278914604496 4.663251544614355 0 0 0
185 1 23.3815934603039 15.299232366238218 3.1043515959805994 0 0 0
186 2 24.940356905774237 14.39927878377359 4.6632670016231135 0 0 0
109 2 1.5587684845047438 17.099143791328512 4.663250341582908 0 0 0
111 2 4.676313802847506 17.09914289797694 4.6632512565886035 0 0 0
127 1 3.117542109473439 17.999096277337443 3.1043432630786523 0 0 0
114 2 7.793860154412844 17.099143869671277 4.663260225868216 0 0 0
129 1 6.235090159266504 17.999096176026267 3.1043480339638987 0 0 0
131 1 9.352639599490509 17.99909608023099 3.1043579900967453 0 0 0
117 2 10.911419107044015 17.09914538467313 4.663262341733778 0 0 0
133 1 12.470190289804892 17.99909639322697 3.1043488323371626 0 0 0
121 2 14.028973453733457 17.099143668437534 4.663246003380979 0 0 0
135 1 15.587738413003285 17.999097233158846 3.1043310344381365 0 0 0
124 2 17.146510073581812 17.09914308769941 4.663236696789944 0 0 0
137 1 18.70528123402696 17.99909799266465 3.104332795027591 0 0 0
181 2 20.264045993572047 17.099144036437792 4.663244761193724 0 0 0
184 2 23.381586485369564 17.099143113759787 4.663259062388554 0 0 0
187 1 21.822822879459405 17.999097297803758 3.104344152621569 0 0 0
189 1 24.940364723650145 17.999097076750964 3.1043599859699933 0 0 0
139 1 1.5587683223494 20.698960887394303 3.1043436752025615 0 0 0
128 2 3.117541822255783 19.799007930660355 4.663250136029324 0 0 0
140 1 4.676316019774361 20.698960830949993 3.1043442022259677 0 0 0
130 2 6.235085752495496 19.7990076183463 4.663254951959492 0 0 0
141 1 7.793864632973366 20.698960700694226 3.1043538443943977 0 0 0
132 2 9.352638362379917 19.79900951765326 4.663263796266738 0 0 0
134 2 12.470198594330606 19.799009415263438 4.663255359719742 0 0 0
142 1 10.911414916794012 20.698960756576298 3.104356561557607 0 0 0
136 2 15.587743300530176 19.79900750793373 4.663238811587815 0 0 0
143 1 14.02896506226928 20.698961347609426 3.104338488824447 0 0 0
144 1 17.14651050407049 20.69896229163833 3.1043295102691175 0 0 0
138 2 18.705277422658025 19.79900838549733 4.66323936364746 0 0 0
191 1 20.264051862239246 20.69896244129155 3.104338061047232 0 0 0
188 2 21.822815598810145 19.79900809932005 4.663251544614341 0 0 0
192 1 23.381593460303822 20.698961550953815 3.1043515959806056 0 0 0
190 2 24.940356905774188 19.799007968489136 4.663267001623112 0 0 0
193 3 1.5587681386290402 22.498872473199892 1.5454368639722023 0 0 0
194 3 4.676318164919534 22.498873402083266 1.5454378253572498 0 0 0
195 3 7.79386903265008 22.498872654995143 1.5454469529085442 0 0 0
196 3 10.911410887669296 22.49887195891632 1.5454493221648455 0 0 0
197 3 14.02895704144835 22.498874009266878 1.5454326958392568 0 0 0
198 3 17.146511014558847 22.49887407971359 1.545422570244955 0 0 0
337 3 20.264057525458878 22.498873195811186 1.5454306127732915 0 0 0
338 3 23.381601555552326 22.498872783998316 1.5454451241967373 0 0 0
199 3 3.1175423629936603 25.19873753110404 1.5454366727759172 0 0 0
200 3 6.235094433952483 25.19873792246661 1.5454415729926294 0 0 0
201 3 9.352640730137727 25.19873653437237 1.5454506611589445 0 0 0
202 3 12.470182316168177 25.198737470759646 1.5454423288059769 0 0 0
203 3 15.587734382525719 25.19873907163862 1.5454251166930215 0 0 0
204 3 18.705285474614545 25.198738070126595 1.5454250279230417 0 0 0
339 3 21.822829091404284 25.198737629353072 1.5454374603256773 0 0 0
340 3 24.94037170411762 25.19873685116472 1.5454528845380016 0 0 0
205 3 1.5587681386289927 27.898601657915368 1.545436863972134 0 0 0
206 3 4.676318164919508 27.898602586798706 1.5454378253572356 0 0 0
207 3 7.793869032650057 27.898601839710665 1.5454469529085821 0 0 0
208 3 10.911410887669275 27.89860114363192 1.5454493221648926 0 0 0
209 3 14.028957041448262 27.898603193982414 1.545432695839192 0 0 0
210 3 17.146511014558808 27.89860326442917 1.5454225702449886 0 0 0
341 3 20.26405752545889 27.898602380526693 1.5454306127733237 0 0 0
342 3 23.381601555552365 27.89860196871394 1.5454451241967038 0 0 0
241 3 3.117542362993664 30.59846671581962 1.5454366727762343 0 0 0
242 3 6.235094433952738 30.59846710718221 1.545441572992528 0 0 0
243 3 9.352640730137697 30.598465719087915 1.5454506611588554 0 0 0
244 3 12.470182316168108 30.598466655475164 1.545442328806016 0 0 0
245 3 15.58773438252565 30.59846825635416 1.5454251166930513 0 0 0
246 3 18.705285474614456 30.598467254842102 1.5454250279230413 0 0 0
353 3 21.822829091404394 30.598466814068626 1.5454374603256964 0 0 0
354 3 24.940371704117652 30.598466035880325 1.5454528845380047 0 0 0
247 3 1.558768138629232 33.298330842631 1.5454368639722544 0 0 0
248 3 4.676318164919557 33.298331771514476 1.54543782535722 0 0 0
249 3 7.79386903265004 33.29833102442628 1.5454469529084998 0 0 0
250 3 10.911410887669323 33.29833032834744 1.545449322164869 0 0 0
251 3 14.028957041448272 33.298332378698 1.5454326958392326 0 0 0
252 3 17.146511014558747 33.29833244914467 1.545422570244942 0 0 0
355 3 20.264057525458867 33.298331565242236 1.545430612773325 0 0 0
356 3 23.381601555552326 33.29833115342952 1.5454451241967382 0 0 0
253 3 3.1175423629939876 35.99819590053525 1.5454366727759108 0 0 0
254 3 6.235094433952596 35.99819629189771 1.5454415729926303 0 0 0
255 3 9.352640730137743 35.99819490380354 1.5454506611589525 0 0 0
256 3 12.470182316168147 35.998195840190654 1.5454423288060046 0 0 0
257 3 15.58773438252566 35.998197441069664 1.5454251166930346 0 0 0
258 3 18.705285474614556 35.99819643955765 1.5454250279230606 0 0 0
357 3 21.822829091404355 35.998195998784134 1.5454374603257166 0 0 0
358 3 24.940371704117684 35.99819522059585 1.5454528845379438 0 0 0
259 3 1.558768138629047 38.69806002734664 1.5454368639722218 0 0 0
260 3 4.676318164919365 38.69806095622994 1.5454378253573433 0 0 0
261 3 7.793869032649972 38.69806020914187 1.5454469529085015 0 0 0
262 3 10.911410887669282 38.69805951306304 1.5454493221648191 0 0 0
263 3 14.028957041448342 38.69806156341362 1.5454326958392237 0 0 0
264 3 17.146511014558897 38.69806163386014 1.5454225702449547 0 0 0
359 3 20.264057525458828 38.69806074995777 1.5454306127732984 0 0 0
360 3 23.381601555552333 38.69806033814509 1.5454451241967444 0 0 0
265 3 3.1175423629940067 41.39792508525074 1.5454366727760016 0 0 0
266 3 6.235094433952713 41.39792547661325 1.5454415729925473 0 0 0
267 3 9.352640730137866 41.39792408851907 1.545450661158886 0 0 0
268 3 12.4701823161681 41.39792502490621 1.5454423288060337 0 0 0
269 3 15.587734382525689 41.39792662578525 1.545425116693054 0 0 0
270 3 18.705285474614485 41.39792562427323 1.5454250279231287 0 0 0
361 3 21.82282909140439 41.39792518349969 1.5454374603257037 0 0 0
362 3 24.940371704117666 41.397924405311514 1.5454528845378863 0 0 0
211 2 1.5587684845047414 22.498872976044048 4.663250341582958 0 0 0
212 2 4.676313802847766 22.498872082692547 4.663251256588536 0 0 0
217 1 3.1175421094736238 23.398825462052958 3.104343263078747 0 0 0
213 2 7.793860154412968 22.498873054386866 4.6632602258681874 0 0 0
219 1 6.235090159266616 23.398825360741675 3.1043480339638436 0 0 0
221 1 9.352639599490553 23.398825264946538 3.1043579900967186 0 0 0
214 2 10.911419107043962 22.498874569388683 4.663262341733729 0 0 0
223 1 12.470190289804899 23.39882557794249 3.1043488323371347 0 0 0
215 2 14.028973453733458 22.498872853153095 4.663246003380968 0 0 0
225 1 15.587738413003288 23.39882641787438 3.1043310344381303 0 0 0
216 2 17.146510073581876 22.49887227241496 4.663236696789945 0 0 0
227 1 18.70528123402696 23.39882717738022 3.104332795027563 0 0 0
343 2 20.26404599357207 22.49887322115339 4.6632447611937415 0 0 0
344 2 23.381586485369603 22.498872298475412 4.663259062388555 0 0 0
345 1 21.822822879459395 23.39882648251937 3.1043441526215894 0 0 0
347 1 24.940364723650145 23.398826261466475 3.10435998597 0 0 0
230 1 1.558768322349797 26.09869007210978 3.1043436752025637 0 0 0
218 2 3.1175418222556472 25.1987371153761 4.6632501360292675 0 0 0
232 1 4.6763160197744424 26.09869001566567 3.1043442022260073 0 0 0
220 2 6.235085752495489 25.198736803061955 4.66325495195954 0 0 0
235 1 7.793864632973276 26.098689885409673 3.1043538443943657 0 0 0
222 2 9.352638362379865 25.1987387023687 4.663263796266663 0 0 0
224 2 12.470198594330647 25.198738599978984 4.6632553597197 0 0 0
238 1 10.911414916793943 26.098689941291752 3.104356561557599 0 0 0
226 2 15.587743300530217 25.19873669264932 4.663238811587798 0 0 0
239 1 14.028965062269322 26.09869053232502 3.1043384888244425 0 0 0
233 1 17.146510504070555 26.098691476353856 3.104329510269102 0 0 0
228 2 18.705277422658103 25.198737570212863 4.663239363647461 0 0 0
350 1 20.26405186223932 26.09869162600709 3.104338061047251 0 0 0
346 2 21.822815598810102 25.198737284035627 4.663251544614353 0 0 0
352 1 23.3815934603039 26.098690735669393 3.104351595980582 0 0 0
348 2 24.94035690577419 25.19873715320472 4.663267001623117 0 0 0
229 2 1.5587684845047138 27.89860216075967 4.663250341583052 0 0 0
231 2 4.676313802847701 27.89860126740803 4.66325125658866 0 0 0
331 1 3.117542109473366 28.79855464676839 3.104343263078779 0 0 0
234 2 7.79386015441275 27.898602239102345 4.663260225868157 0 0 0
333 1 6.2350901592666395 28.798554545457307 3.104348033963835 0 0 0
334 1 9.35263959949061 28.798554449662074 3.1043579900967524 0 0 0
237 2 10.911419107043972 27.89860375410423 4.663262341733726 0 0 0
336 1 12.470190289804911 28.798554762658068 3.104348832337134 0 0 0
240 2 14.02897345373337 27.89860203786867 4.66324600338101 0 0 0
335 1 15.587738413003219 28.79855560258995 3.104331034438127 0 0 0
236 2 17.146510073581837 27.898601457130496 4.663236696789924 0 0 0
332 1 18.70528123402697 28.7985563620957 3.10433279502761 0 0 0
349 2 20.264045993572093 27.898602405868925 4.663244761193751 0 0 0
351 2 23.381586485369628 27.898601483190966 4.663259062388541 0 0 0
383 1 21.822822879459444 28.79855566723497 3.10434415262159 0 0 0
384 1 24.940364723650255 28.79855544618192 3.1043599859700235 0 0 0
271 1 1.558768322349818 31.498419256825358 3.1043436752025575 0 0 0
272 1 4.676316019774739 31.498419200381317 3.1043442022260708 0 0 0
273 2 3.11754182225583 30.59846630009154 4.663250136029078 0 0 0
274 1 7.7938646329734524 31.498419070125347 3.1043538443942897 0 0 0
275 2 6.235085752495675 30.59846598777738 4.663254951959464 0 0 0
277 2 9.352638362379862 30.598467887084357 4.663263796266755 0 0 0
276 1 10.911414916793932 31.49841912600731 3.104356561557599 0 0 0
278 2 12.470198594330625 30.598467784694463 4.663255359719677 0 0 0
279 1 14.028965062269311 31.498419717040584 3.1043384888244487 0 0 0
280 2 15.587743300530208 30.598465877364788 4.663238811587776 0 0 0
281 1 17.14651050407042 31.49842066106942 3.104329510269132 0 0 0
282 2 18.705277422658042 30.598466754928484 4.663239363647459 0 0 0
363 1 20.264051862239164 31.498420810722642 3.104338061047215 0 0 0
364 2 21.822815598810227 30.598466468751077 4.663251544614365 0 0 0
365 1 23.3815934603039 31.4984199203849 3.104351595980632 0 0 0
366 2 24.94035690577423 30.5984663379203 4.663267001623146 0 0 0
283 2 1.5587684845046241 33.29833134547521 4.66325034158304 0 0 0
284 2 4.67631380284771 33.29833045212369 4.663251256588566 0 0 0
285 1 3.1175421094734754 34.19828383148392 3.1043432630787313 0 0 0
286 2 7.793860154412839 33.29833142381794 4.663260225868215 0 0 0
287 1 6.235090159266601 34.198283730172854 3.1043480339638387 0 0 0
289 1 9.35263959949062 34.198283634377624 3.104357990096758 0 0 0
288 2 10.911419107044008 33.298332938819804 4.663262341733749 0 0 0
290 1 12.47019028980491 34.198283947373696 3.104348832337133 0 0 0
291 2 14.028973453733444 33.298331222584146 4.663246003381009 0 0 0
292 1 15.587738413003311 34.198284787305454 3.104331034438139 0 0 0
293 2 17.146510073581826 33.29833064184602 4.663236696789954 0 0 0
294 1 18.70528123402697 34.19828554681138 3.104332795027598 0 0 0
367 2 20.26404599357209 33.29833159058444 4.663244761193739 0 0 0
368 1 21.822822879459412 34.19828485195049 3.104344152621595 0 0 0
369 2 23.38158648536958 33.29833066790655 4.663259062388551 0 0 0
370 1 24.940364723650237 34.1982846308976 3.1043599859700035 0 0 0
295 1 1.558768322349771 36.898148441540805 3.104343675202475 0 0 0
296 1 4.676316019774607 36.89814838509699 3.1043442022260423 0 0 0
297 2 3.1175418222558764 35.99819548480718 4.663250136029136 0 0 0
298 1 7.793864632973374 36.89814825484081 3.1043538443944048 0 0 0
299 2 6.235085752495634 35.99819517249298 4.663254951959598 0 0 0
301 2 9.352638362380011 35.99819707179995 4.66326379626672 0 0 0
300 1 10.911414916793959 36.898148310723045 3.1043565615576476 0 0 0
302 2 12.470198594330627 35.99819696941007 4.66325535971968 0 0 0
303 1 14.02896506226933 36.8981489017561 3.1043384888244296 0 0 0
304 2 15.587743300530178 35.998195062080256 4.663238811587813 0 0 0
305 1 17.146510504070495 36.89814984578506 3.1043295102691735 0 0 0
306 2 18.705277422658053 35.998195939643956 4.663239363647523 0 0 0
371 1 20.26405186223928 36.898149995438146 3.1043380610472338 0 0 0
372 2 21.82281559881015 35.99819565346677 4.663251544614318 0 0 0
373 1 23.381593460303904 36.89814910510049 3.104351595980601 0 0 0
374 2 24.94035690577425 35.99819552263579 4.663267001623128 0 0 0
307 2 1.5587684845046654 38.698060530190915 4.663250341582958 0 0 0
308 2 4.676313802847592 38.69805963683927 4.66325125658861 0 0 0
309 1 3.117542109473607 39.59801301619965 3.104343263078819 0 0 0
310 2 7.793860154412864 38.698060608533545 4.663260225868223 0 0 0
311 1 6.235090159266709 39.598012914888386 3.1043480339637797 0 0 0
313 1 9.352639599490448 39.59801281909331 3.104357990096662 0 0 0
312 2 10.911419107043915 38.69806212353546 4.663262341733743 0 0 0
314 1 12.470190289804881 39.598013132089285 3.1043488323371515 0 0 0
315 2 14.028973453733544 38.698060407299735 4.66324600338097 0 0 0
316 1 15.587738413003269 39.598013972021114 3.1043310344381125 0 0 0
317 2 17.146510073581894 38.698059826561604 4.663236696789966 0 0 0
318 1 18.70528123402705 39.59801473152688 3.104332795027581 0 0 0
375 2 20.264045993572086 38.69806077530006 4.6632447611937815 0 0 0
376 1 21.822822879459437 39.59801403666608 3.104344152621601 0 0 0
377 2 23.38158648536955 38.6980598526221 4.663259062388533 0 0 0
378 1 24.940364723650184 39.598013815613136 3.104359985970012 0 0 0
319 1 1.5587683223494728 42.297877626256586 3.1043436752025357 0 0 0
320 1 4.676316019774471 42.297877569812414 3.104344202226138 0 0 0
321 2 3.1175418222558644 41.39792466952266 4.663250136029284 0 0 0
322 1 7.793864632973328 42.297877439556466 3.104353844394319 0 0 0
323 2 6.235085752495751 41.39792435720861 4.663254951959583 0 0 0
325 2 9.35263836238003 41.397926256515404 4.663263796266634 0 0 0
324 1 10.911414916794003 42.297877495438485 3.1043565615576334 0 0 0
326 2 12.470198594330665 41.39792615412557 4.663255359719743 0 0 0
327 1 14.02896506226929 42.29787808647175 3.1043384888244976 0 0 0
328 2 15.587743300530258 41.3979242467959 4.6632388115877434 0 0 0
329 1 17.146510504070523 42.29787903050045 3.104329510269105 0 0 0
330 2 18.705277422658003 41.397925124359574 4.6632393636474685 0 0 0
379 1 20.26405186223931 42.29787918015382 3.1043380610472484 0 0 0
380 2 21.822815598810124 41.397924838182234 4.663251544614329 0 0 0
381 1 23.381593460303787 42.29787828981605 3.104351595980583 0 0 0
382 2 24.94035690577425 41.39792470735137 4.663267001623138 0 0 0
385 3 1.5587681386289918 44.09778921206208 1.5454368639725167 0 0 0
386 3 4.676318164919589 44.09779014094542 1.5454378253573087 0 0 0
387 3 7.793869032650135 44.09778939385744 1.5454469529085133 0 0 0
388 3 10.911410887669335 44.09778869777871 1.5454493221648413 0 0 0
389 3 14.028957041448322 44.097790748129135 1.545432695839273 0 0 0
390 3 17.146511014558858 44.09779081857587 1.5454225702449695 0 0 0
529 3 20.264057525458878 44.09778993467334 1.5454306127733608 0 0 0
530 3 23.381601555552344 44.09778952286062 1.545445124196731 0 0 0
391 3 3.1175423629936185 46.797654269966195 1.5454366727759778 0 0 0
392 3 6.235094433952714 46.79765466132888 1.5454415729926207 0 0 0
393 3 9.352640730137727 46.79765327323471 1.5454506611589 0 0 0
394 3 12.470182316168058 46.7976542096219 1.5454423288059373 0 0 0
395 3 15.587734382525616 46.79765581050088 1.5454251166930741 0 0 0
396 3 18.705285474614584 46.797654808988774 1.5454250279230466 0 0 0
531 3 21.822829091404373 46.79765436821528 1.5454374603257042 0 0 0
532 3 24.940371704117645 46.797653590027075 1.5454528845380242 0 0 0
397 3 1.5587681386291004 49.49751839677765 1.5454368639724452 0 0 0
398 3 4.676318164919824 49.49751932566101 1.5454378253571088 0 0 0
399 3 7.793869032650208 49.49751857857292 1.5454469529085146 0 0 0
400 3 10.911410887669197 49.49751788249417 1.5454493221647945 0 0 0
401 3 14.02895704144838 49.497519932844796 1.5454326958392184 0 0 0
402 3 17.146511014558797 49.49752000329142 1.5454225702449749 0 0 0
533 3 20.26405752545885 49.49751911938901 1.5454306127733564 0 0 0
534 3 23.38160155555231 49.497518707576255 1.545445124196761 0 0 0
403 3 3.1175423629939805 52.19738345468185 1.5454366727759326 0 0 0
404 3 6.235094433952664 52.197383846044346 1.5454415729925564 0 0 0
405 3 9.352640730137658 52.19738245795025 1.5454506611589232 0 0 0
406 3 12.470182316168087 52.1973833943375 1.5454423288060435 0 0 0
407 3 15.587734382525579 52.197384995216474 1.545425116693079 0 0 0
408 3 18.705285474614485 52.19738399370435 1.5454250279230282 0 0 0
535 3 21.822829091404323 52.19738355293091 1.5454374603256693 0 0 0
536 3 24.940371704117666 52.19738277474254 1.545452884537991 0 0 0
409 3 1.5587681386290764 54.8972475814934 1.5454368639722793 0 0 0
410 3 4.676318164919625 54.897248510376464 1.5454378253573426 0 0 0
411 3 7.793869032650105 54.89724776328857 1.5454469529085317 0 0 0
412 3 10.911410887669302 54.8972470672097 1.5454493221648147 0 0 0
413 3 14.028957041448242 54.897249117560364 1.5454326958392801 0 0 0
414 3 17.146511014558833 54.89724918800694 1.5454225702448878 0 0 0
537 3 20.2640575254589 54.8972483041045 1.5454306127733235 0 0 0
538 3 23.381601555552344 54.89724789229183 1.5454451241967608 0 0 0
477 3 3.1175423629938646 57.597112639397515 1.5454366727759399 0 0 0
479 3 6.23509443395266 57.59711303075999 1.5454415729925552 0 0 0
481 3 9.352640730137782 57.59711164266576 1.5454506611588692 0 0 0
482 3 12.47018231616803 57.597112579052975 1.5454423288059664 0 0 0
484 3 15.587734382525579 57.59711417993201 1.5454251166929955 0 0 0
486 3 18.705285474614545 57.59711317841993 1.545425027923114 0 0 0
560 3 21.822829091404383 57.59711273764649 1.5454374603257075 0 0 0
562 3 24.9403717041177 57.59711195945817 1.5454528845379587 0 0 0
475 3 1.5587681386291352 60.296976766208886 1.5454368639722655 0 0 0
476 3 4.676318164919563 60.29697769509215 1.545437825357255 0 0 0
478 3 7.7938690326500755 60.2969769480041 1.545446952908442 0 0 0
480 3 10.911410887669222 60.296976251925294 1.5454493221648649 0 0 0
483 3 14.028957041448205 60.29697830227585 1.5454326958392706 0 0 0
485 3 17.146511014558726 60.29697837272251 1.5454225702449522 0 0 0
559 3 20.264057525458945 60.296977488820055 1.5454306127732624 0 0 0
561 3 23.381601555552393 60.29697707700726 1.5454451241967122 0 0 0
487 3 3.1175423629939303 62.99684182411295 1.5454366727758753 0 0 0
488 3 6.235094433952441 62.996842215475446 1.5454415729925886 0 0 0
489 3 9.352640730137777 62.996840827381305 1.545450661158908 0 0 0