LAMMPS data file via write_data, version 2 Aug 2023, timestep = 443, units = metal

9440 atoms
3 atom types

0 311.7536260105656 xlo xhi
0 86.39577493366961 ylo yhi
0 50 zlo zhi
0 0 0 xy xz yz

Masses

1 95.94
2 32.065
3 32.065

Atoms # atomic

1 3 1.5587673023275195 0.8999558688352384 1.5454397132831184 0 0 0
2 3 4.676303562437272 0.8999558688397049 1.5454397132825677 0 0 0
3 3 7.793839822544044 0.8999558688365489 1.5454397132828341 0 0 0
4 3 10.911376082649015 0.8999558688374887 1.5454397132824431 0 0 0
5 3 14.02891234275455 0.8999558688375768 1.5454397132826998 0 0 0
6 3 17.14644860285985 0.8999558688375932 1.5454397132824806 0 0 0
178 3 20.263984862966407 0.8999558688375525 1.545439713282798 0 0 0
179 3 23.381521123070737 0.8999558688377964 1.5454397132825297 0 0 0
7 3 3.117535432383596 3.599823835514743 1.5454397132822901 0 0 0
8 3 6.235071692490105 3.5998238355142678 1.5454397132829003 0 0 0
9 3 9.352607952595665 3.599823835514398 1.5454397132826108 0 0 0
10 3 12.47014421270226 3.5998238355133427 1.5454397132827307 0 0 0
11 3 15.587680472807412 3.5998238355132632 1.545439713282591 0 0 0
180 3 18.70521673291295 3.599823835512589 1.5454397132827165 0 0 0
181 3 21.82275299301824 3.5998238355130523 1.5454397132827686 0 0 0
182 3 24.94028925312493 3.5998238355126806 1.5454397132828213 0 0 0
12 3 1.5587673023280821 6.299691802193965 1.545439713281861 0 0 0
13 3 4.6763035624380285 6.299691802189036 1.545439713282983 0 0 0
14 3 7.793839822543833 6.299691802188435 1.5454397132831612 0 0 0
15 3 10.911376082649406 6.299691802189389 1.5454397132827145 0 0 0
16 3 14.028912342754207 6.299691802188999 1.5454397132831945 0 0 0
17 3 17.14644860285956 6.29969180218933 1.5454397132828597 0 0 0
183 3 20.263984862965078 6.299691802188515 1.545439713282962 0 0 0
184 3 23.3815211230719 6.299691802188362 1.5454397132827005 0 0 0
18 3 3.1175354323780886 8.999559768866291 1.5454397132831479 0 0 0
19 3 6.235071692492547 8.99955976886635 1.5454397132834954 0 0 0
20 3 9.35260795259777 8.999559768866945 1.5454397132829352 0 0 0
21 3 12.470144212701854 8.999559768866668 1.5454397132824838 0 0 0
22 3 15.58768047280699 8.999559768866357 1.545439713282769 0 0 0
185 3 18.705216732912483 8.99955976886732 1.545439713283161 0 0 0
186 3 21.822752993018483 8.999559768867579 1.5454397132831923 0 0 0
187 3 24.94028925312457 8.999559768867396 1.5454397132831954 0 0 0
23 3 1.5587673023330968 11.699427735540098 1.545439713281831 0 0 0
24 3 4.676303562438957 11.69942773554482 1.5454397132821434 0 0 0
25 3 7.793839822543536 11.6994277355454 1.5454397132830133 0 0 0
26 3 10.91137608264808 11.699427735545191 1.5454397132831037 0 0 0
27 3 14.0289123427543 11.699427735545497 1.5454397132829552 0 0 0
28 3 17.14644860285968 11.699427735545115 1.5454397132828404 0 0 0
188 3 20.26398486296591 11.699427735545285 1.5454397132828779 0 0 0
189 3 23.381521123071728 11.699427735545175 1.5454397132828108 0 0 0
29 3 3.117535432380971 14.399295702223304 1.5454397132839444 0 0 0
30 3 6.23507169249382 14.399295702222727 1.54543971328286 0 0 0
31 3 9.352607952596806 14.399295702222657 1.5454397132825122 0 0 0
32 3 12.470144212700891 14.399295702221256 1.5454397132828253 0 0 0
33 3 15.587680472807447 14.399295702222137 1.5454397132827735 0 0 0
190 3 18.705216732913197 14.399295702222027 1.545439713282616 0 0 0
191 3 21.822752993018398 14.399295702222686 1.5454397132828692 0 0 0
192 3 24.940289253124142 14.399295702221822 1.5454397132829092 0 0 0
34 3 1.5587673023301638 17.099163668898946 1.5454397132830875 0 0 0
35 3 4.676303562437709 17.099163668898466 1.5454397132832993 0 0 0
36 3 7.793839822544524 17.09916366889959 1.5454397132823459 0 0 0
37 3 10.911376082647754 17.099163668899074 1.5454397132828972 0 0 0
38 3 14.028912342753891 17.09916366889901 1.545439713283019 0 0 0
39 3 17.146448602860655 17.09916366889854 1.5454397132828896 0 0 0
193 3 20.26398486296571 17.099163668898772 1.5454397132829079 0 0 0
194 3 23.381521123070634 17.099163668898367 1.5454397132828446 0 0 0
40 3 3.1175354323799143 19.799031635574934 1.5454397132826587 0 0 0
41 3 6.235071692493107 19.7990316355754 1.545439713282833 0 0 0
42 3 9.352607952596985 19.799031635575304 1.5454397132827533 0 0 0
43 3 12.470144212699998 19.799031635576263 1.5454397132829951 0 0 0
44 3 15.587680472806758 19.799031635575584 1.545439713283087 0 0 0
195 3 18.705216732912977 19.799031635575556 1.545439713282842 0 0 0
196 3 21.82275299301873 19.79903163557572 1.545439713282927 0 0 0
197 3 24.94028925312446 19.799031635575805 1.5454397132826037 0 0 0
133 3 1.5587673023241253 22.49889960225596 1.5454397132828128 0 0 0
134 3 4.676303562438085 22.49889960225256 1.5454397132843107 0 0 0
135 3 7.793839822546873 22.49889960225245 1.5454397132825932 0 0 0
136 3 10.911376082648582 22.498899602253044 1.545439713282437 0 0 0
137 3 14.028912342753554 22.498899602253616 1.5454397132829731 0 0 0
138 3 17.14644860285998 22.498899602253225 1.5454397132828979 0 0 0
238 3 20.263984862965668 22.498899602253207 1.5454397132827553 0 0 0
239 3 23.381521123071945 22.498899602252873 1.5454397132830213 0 0 0
139 3 3.117535432381904 25.19876756893175 1.54543971328305 0 0 0
140 3 6.235071692491815 25.19876756893187 1.5454397132835684 0 0 0
141 3 9.352607952597364 25.19876756892945 1.5454397132822917 0 0 0
142 3 12.470144212700534 25.198767568930755 1.5454397132831867 0 0 0
143 3 15.58768047280625 25.198767568930947 1.5454397132831312 0 0 0
240 3 18.705216732913456 25.198767568931697 1.5454397132829474 0 0 0
241 3 21.822752993018437 25.19876756893045 1.545439713282853 0 0 0
242 3 24.940289253124178 25.198767568930627 1.5454397132829087 0 0 0
144 3 1.558767302320374 27.898635535605223 1.5454397132814521 0 0 0
145 3 4.676303562433736 27.898635535609923 1.545439713283784 0 0 0
146 3 7.793839822546832 27.89863553560632 1.5454397132827724 0 0 0
147 3 10.91137608264971 27.89863553560669 1.5454397132825954 0 0 0
148 3 14.028912342754607 27.898635535608456 1.5454397132827105 0 0 0
149 3 17.146448602859643 27.898635535607696 1.5454397132826907 0 0 0
243 3 20.263984862965632 27.89863553560791 1.5454397132829416 0 0 0
244 3 23.381521123071334 27.89863553560754 1.5454397132828812 0 0 0
45 2 1.5587673023285742 0.8999558688334117 4.663253620051864 0 0 0
46 2 4.676303562436039 0.8999558688396412 4.663253620049509 0 0 0
47 1 3.1175354323807007 1.7999123006703197 3.1043466666660082 0 0 0
48 2 7.7938398225441246 0.8999558688370527 4.663253620050477 0 0 0
49 1 6.235071692490991 1.7999123006718323 3.104346666666714 0 0 0
51 1 9.352607952596607 1.7999123006717126 3.1043466666663617 0 0 0
50 2 10.911376082648903 0.8999558688373319 4.663253620050307 0 0 0
53 1 12.470144212701513 1.7999123006712339 3.104346666666685 0 0 0
52 2 14.028912342754312 0.8999558688375504 4.663253620050974 0 0 0
55 1 15.587680472807458 1.7999123006712798 3.1043466666667205 0 0 0
54 2 17.146448602859625 0.8999558688374574 4.663253620050589 0 0 0
198 1 18.705216732912962 1.7999123006706177 3.104346666666598 0 0 0
199 2 20.263984862966105 0.8999558688379772 4.6632536200507975 0 0 0
200 1 21.822752993018316 1.7999123006713116 3.104346666666769 0 0 0
201 2 23.381521123070083 0.8999558688374214 4.663253620050858 0 0 0
202 1 24.94028925312331 1.7999123006708482 3.1043466666670048 0 0 0
56 1 1.5587673023317856 4.499780267349914 3.1043466666654234 0 0 0
57 1 4.676303562436667 4.499780267346652 3.1043466666667934 0 0 0
58 2 3.117535432381828 3.5998238355135768 4.663253620049282 0 0 0
59 1 7.793839822542931 4.499780267346777 3.1043466666670567 0 0 0
60 2 6.235071692489774 3.5998238355137406 4.663253620051102 0 0 0
62 2 9.352607952596344 3.5998238355139005 4.663253620050397 0 0 0
61 1 10.91137608264909 4.499780267347228 3.1043466666663893 0 0 0
64 2 12.470144212701815 3.599823835513441 4.66325362005059 0 0 0
63 1 14.028912342754715 4.49978026734683 3.1043466666668693 0 0 0
66 2 15.587680472807792 3.599823835513523 4.663253620050699 0 0 0
65 1 17.146448602860236 4.499780267346735 3.1043466666664186 0 0 0
203 2 18.705216732912138 3.5998238355125842 4.663253620050488 0 0 0
204 1 20.263984862965348 4.499780267346251 3.104346666666848 0 0 0
205 2 21.822752993018504 3.5998238355131167 4.663253620050834 0 0 0
206 1 23.38152112307154 4.499780267346011 3.1043466666665855 0 0 0
207 2 24.940289253124966 3.599823835513092 4.663253620050639 0 0 0
67 2 1.5587673023297335 6.299691802191775 4.663253620050225 0 0 0
68 2 4.676303562436863 6.299691802189055 4.663253620050602 0 0 0
69 1 3.117535432383004 7.199648234023273 3.104346666666105 0 0 0
70 2 7.79383982254449 6.299691802188499 4.663253620050965 0 0 0
71 1 6.235071692491364 7.199648234023036 3.104346666667272 0 0 0
73 1 9.352607952596633 7.199648234023483 3.104346666666542 0 0 0
72 2 10.911376082648927 6.299691802189197 4.663253620050262 0 0 0
75 1 12.470144212701596 7.1996482340239005 3.1043466666666775 0 0 0
74 2 14.028912342753987 6.299691802189034 4.663253620050729 0 0 0
77 1 15.587680472806513 7.1996482340234556 3.10434666666694 0 0 0
76 2 17.146448602859913 6.299691802188841 4.663253620050482 0 0 0
208 1 18.70521673291265 7.199648234023833 3.1043466666667383 0 0 0
209 2 20.263984862965646 6.299691802189166 4.6632536200502415 0 0 0
210 1 21.822752993018657 7.199648234023506 3.1043466666662898 0 0 0
211 2 23.381521123071607 6.299691802188382 4.6632536200500665 0 0 0
212 1 24.940289253124593 7.1996482340236785 3.104346666666647 0 0 0
78 1 1.55876730232394 9.899516200698539 3.1043466666670154 0 0 0
79 1 4.67630356243542 9.899516200700017 3.1043466666660358 0 0 0
80 2 3.1175354323793534 8.999559768865852 4.663253620049476 0 0 0
81 1 7.7938398225453165 9.899516200702392 3.104346666667074 0 0 0
82 2 6.235071692491968 8.99955976886739 4.6632536200502255 0 0 0
84 2 9.352607952598401 8.999559768866373 4.663253620050471 0 0 0
83 1 10.911376082649541 9.899516200701902 3.1043466666665744 0 0 0
86 2 12.470144212702072 8.999559768867114 4.663253620050299 0 0 0
85 1 14.028912342754383 9.89951620070158 3.1043466666662294 0 0 0
88 2 15.587680472806229 8.999559768867048 4.663253620050327 0 0 0
87 1 17.146448602859426 9.899516200701733 3.104346666666649 0 0 0
213 2 18.705216732911847 8.99955976886727 4.663253620050457 0 0 0
214 1 20.26398486296531 9.899516200702093 3.1043466666669524 0 0 0
215 2 21.82275299301849 8.999559768866702 4.663253620050404 0 0 0
216 1 23.38152112307165 9.899516200702097 3.1043466666669515 0 0 0
217 2 24.94028925312488 8.999559768867352 4.663253620050514 0 0 0
89 2 1.5587673023346946 11.699427735542272 4.663253620051016 0 0 0
90 2 4.6763035624375275 11.699427735544354 4.663253620049616 0 0 0
91 1 3.1175354323848126 12.599384167377389 3.1043466666656623 0 0 0
92 2 7.79383982254364 11.699427735545976 4.663253620050971 0 0 0
93 1 6.23507169249115 12.599384167379942 3.104346666666738 0 0 0
95 1 9.352607952595648 12.599384167380293 3.1043466666667294 0 0 0
94 2 10.911376082647495 11.699427735544779 4.663253620050558 0 0 0
97 1 12.470144212700932 12.599384167378869 3.1043466666670865 0 0 0
96 2 14.028912342754523 11.699427735544559 4.66325362005058 0 0 0
99 1 15.587680472807417 12.599384167379396 3.1043466666668467 0 0 0
98 2 17.146448602860257 11.699427735545218 4.6632536200504555 0 0 0
218 1 18.70521673291305 12.599384167379204 3.104346666666476 0 0 0
219 2 20.263984862966005 11.699427735545664 4.663253620050337 0 0 0
220 1 21.822752993018618 12.599384167379855 3.1043466666665194 0 0 0
221 2 23.38152112307159 11.699427735545827 4.663253620050505 0 0 0
222 1 24.94028925312459 12.599384167378975 3.104346666666557 0 0 0
100 1 1.5587673023270665 15.299252134057332 3.1043466666680724 0 0 0
101 1 4.676303562438028 15.29925213405521 3.1043466666668404 0 0 0
102 2 3.117535432382673 14.399295702220844 4.663253620050246 0 0 0
103 1 7.793839822545653 15.299252134057754 3.104346666666571 0 0 0
104 2 6.235071692493698 14.399295702223213 4.663253620050492 0 0 0
106 2 9.35260795259699 14.399295702222707 4.663253620050665 0 0 0
105 1 10.911376082649001 15.299252134056358 3.1043466666664927 0 0 0
108 2 12.4701442127009 14.399295702222076 4.6632536200505665 0 0 0
107 1 14.028912342754069 15.299252134055989 3.1043466666664243 0 0 0
110 2 15.587680472806966 14.399295702222583 4.663253620050534 0 0 0
109 1 17.14644860286008 15.299252134056042 3.1043466666666317 0 0 0
223 2 18.705216732912785 14.3992957022217 4.663253620050492 0 0 0
224 1 20.263984862965422 15.299252134056262 3.104346666666684 0 0 0
225 2 21.822752993018046 14.399295702222494 4.663253620050599 0 0 0
226 1 23.38152112307129 15.299252134055953 3.1043466666668795 0 0 0
227 2 24.940289253124053 14.399295702221345 4.6632536200505506 0 0 0
111 2 1.5587673023289867 17.099163668899635 4.663253620052229 0 0 0
112 2 4.67630356243835 17.099163668898107 4.663253620050522 0 0 0
113 1 3.117535432382894 17.999120100731552 3.1043466666672894 0 0 0
114 2 7.793839822544441 17.099163668899575 4.663253620050773 0 0 0
115 1 6.23507169249174 17.999120100732178 3.1043466666665123 0 0 0
117 1 9.352607952596031 17.99912010073341 3.104346666666758 0 0 0
116 2 10.911376082647608 17.09916366889858 4.6632536200504155 0 0 0
119 1 12.470144212700564 17.999120100733 3.104346666666863 0 0 0
118 2 14.02891234275399 17.099163668898637 4.663253620050299 0 0 0
121 1 15.58768047280769 17.99912010073263 3.1043466666668134 0 0 0
120 2 17.146448602860893 17.099163668898445 4.663253620050499 0 0 0
228 1 18.705216732913524 17.99912010073263 3.1043466666667077 0 0 0
229 2 20.26398486296589 17.099163668898786 4.663253620050562 0 0 0
230 1 21.82275299301832 17.999120100732643 3.1043466666667365 0 0 0
231 2 23.381521123071256 17.099163668898807 4.663253620050485 0 0 0
232 1 24.94028925312317 17.99912010073287 3.104346666666373 0 0 0
122 1 1.558767302327308 20.698988067411776 3.104346666665098 0 0 0
123 1 4.676303562437356 20.698988067407726 3.1043466666666673 0 0 0
124 2 3.117535432380046 19.799031635577098 4.663253620049106 0 0 0
125 1 7.793839822545684 20.698988067409946 3.1043466666667445 0 0 0
126 2 6.235071692493511 19.799031635574575 4.66325362005064 0 0 0
128 2 9.352607952597213 19.799031635575343 4.663253620050827 0 0 0
127 1 10.911376082648088 20.69898806741087 3.1043466666667254 0 0 0
130 2 12.470144212700168 19.799031635576494 4.663253620050548 0 0 0
129 1 14.028912342753603 20.69898806741011 3.1043466666665664 0 0 0
132 2 15.587680472806507 19.799031635575783 4.663253620050396 0 0 0
131 1 17.146448602859753 20.698988067410056 3.1043466666666752 0 0 0
233 2 18.70521673291293 19.799031635575414 4.663253620050603 0 0 0
234 1 20.26398486296562 20.698988067410166 3.104346666666691 0 0 0
235 2 21.8227529930186 19.799031635575453 4.663253620050532 0 0 0
236 1 23.381521123071686 20.698988067409722 3.104346666666737 0 0 0
237 2 24.940289253125012 19.799031635575673 4.663253620050293 0 0 0
150 2 1.5587673023236028 22.498899602252468 4.6632536200499715 0 0 0
151 2 4.676303562438282 22.498899602252603 4.663253620050015 0 0 0
152 1 3.1175354323806683 23.398856034086762 3.104346666667128 0 0 0
153 2 7.79383982254756 22.498899602252507 4.663253620050704 0 0 0
154 1 6.235071692493496 23.398856034086997 3.104346666667102 0 0 0
156 1 9.352607952597522 23.3988560340875 3.1043466666662645 0 0 0
155 2 10.911376082647926 22.49889960225356 4.663253620050504 0 0 0
158 1 12.470144212700749 23.39885603408749 3.1043466666666837 0 0 0
157 2 14.028912342753364 22.498899602253207 4.663253620050301 0 0 0
160 1 15.587680472806511 23.3988560340875 3.104346666666764 0 0 0
159 2 17.146448602860236 22.498899602253353 4.663253620050268 0 0 0
245 1 18.7052167329131 23.39885603408787 3.10434666666641 0 0 0
246 2 20.26398486296557 22.498899602253292 4.663253620050244 0 0 0
247 1 21.822752993018835 23.398856034087395 3.104346666666624 0 0 0
248 2 23.38152112307148 22.498899602252894 4.663253620050518 0 0 0
249 1 24.94028925312449 23.39885603408757 3.1043466666667694 0 0 0
161 1 1.5587673023266861 26.09872400076288 3.104346666665377 0 0 0
162 1 4.67630356243664 26.098724000765486 3.1043466666670185 0 0 0
163 2 3.11753543238096 25.198767568933164 4.663253620049553 0 0 0
164 1 7.793839822546072 26.098724000763912 3.1043466666666504 0 0 0
165 2 6.235071692492927 25.19876756893171 4.6632536200507255 0 0 0
167 2 9.35260795259725 25.19876756892916 4.6632536200508365 0 0 0
166 1 10.911376082648488 26.098724000764342 3.1043466666668555 0 0 0
169 2 12.47014421270065 25.198767568930396 4.663253620050579 0 0 0
168 1 14.028912342753374 26.098724000765305 3.104346666666816 0 0 0
171 2 15.587680472806044 25.19876756893092 4.6632536200504955 0 0 0
170 1 17.146448602859664 26.09872400076488 3.104346666666733 0 0 0
250 2 18.705216732913076 25.19876756893079 4.663253620050548 0 0 0
251 1 20.263984862966044 26.098724000765234 3.104346666666955 0 0 0
252 2 21.822752993018863 25.198767568930357 4.663253620050595 0 0 0
253 1 23.38152112307143 26.09872400076481 3.104346666666646 0 0 0
254 2 24.940289253123904 25.198767568931014 4.663253620050466 0 0 0
172 2 1.5587673023196946 27.898635535606005 4.663253620049511 0 0 0
173 2 4.676303562433736 27.89863553560966 4.663253620049559 0 0 0
174 2 7.793839822546823 27.898635535606815 4.663253620050479 0 0 0
175 2 10.911376082649879 27.89863553560706 4.663253620050581 0 0 0
176 2 14.028912342754666 27.898635535608882 4.663253620050501 0 0 0
177 2 17.146448602859802 27.89863553560761 4.6632536200503525 0 0 0
255 2 20.263984862964993 27.89863553560839 4.663253620050464 0 0 0
256 2 23.381521123070883 27.89863553560742 4.6632536200504955 0 0 0
257 3 3.1175354323838333 30.59850350228773 1.545439713285166 0 0 0
258 3 6.235071692493664 30.598503502284142 1.5454397132822935 0 0 0
259 3 9.352607952595426 30.598503502285002 1.5454397132826778 0 0 0
260 3 12.470144212701458 30.598503502284114 1.5454397132829967 0 0 0
261 3 15.587680472807305 30.598503502285578 1.5454397132831403 0 0 0
427 3 18.705216732912472 30.598503502284935 1.5454397132828281 0 0 0
428 3 21.822752993017122 30.59850350228473 1.5454397132826658 0 0 0
429 3 24.940289253124153 30.59850350228318 1.5454397132829178 0 0 0
262 3 1.5587673023255 33.298371468959736 1.5454397132831723 0 0 0
263 3 4.676303562432329 33.29837146896518 1.5454397132824162 0 0 0
264 3 7.793839822544057 33.298371468961896 1.5454397132833357 0 0 0
265 3 10.911376082650992 33.298371468960866 1.5454397132827646 0 0 0
266 3 14.028912342754522 33.298371468961456 1.5454397132824678 0 0 0
267 3 17.146448602859543 33.29837146896072 1.5454397132824618 0 0 0
430 3 20.263984862965714 33.29837146896243 1.5454397132830917 0 0 0
431 3 23.381521123071053 33.29837146896229 1.545439713282997 0 0 0
268 3 3.117535432378647 35.99823943563915 1.5454397132815703 0 0 0
269 3 6.235071692489509 35.99823943563899 1.545439713283397 0 0 0
270 3 9.352607952596847 35.998239435639164 1.5454397132832143 0 0 0
271 3 12.470144212702683 35.998239435639725 1.5454397132830275 0 0 0
272 3 15.587680472807378 35.99823943563974 1.545439713283009 0 0 0
432 3 18.705216732912206 35.99823943563861 1.5454397132829134 0 0 0
433 3 21.82275299301808 35.99823943563955 1.5454397132828595 0 0 0
434 3 24.940289253125318 35.998239435641 1.5454397132831783 0 0 0
273 3 1.5587673023240542 38.69810740231938 1.5454397132842745 0 0 0
274 3 4.676303562436511 38.69810740231243 1.5454397132831081 0 0 0
275 3 7.793839822545523 38.69810740231743 1.5454397132835511 0 0 0
276 3 10.91137608264971 38.69810740231684 1.545439713282424 0 0 0
277 3 14.028912342754248 38.698107402315884 1.5454397132829587 0 0 0
278 3 17.146448602859042 38.69810740231625 1.5454397132829012 0 0 0
435 3 20.263984862966023 38.698107402316786 1.5454397132828144 0 0 0
436 3 23.381521123070335 38.698107402316694 1.5454397132827205 0 0 0
279 3 3.1175354323809605 41.397975368993094 1.545439713282227 0 0 0
280 3 6.2350716924916645 41.39797536899402 1.5454397132832722 0 0 0
281 3 9.35260795259856 41.397975368995006 1.545439713282562 0 0 0
282 3 12.470144212701218 41.39797536899276 1.5454397132825548 0 0 0
283 3 15.587680472806309 41.397975368994864 1.5454397132827264 0 0 0
437 3 18.705216732913463 41.397975368993336 1.5454397132829396 0 0 0
438 3 21.82275299301901 41.39797536899387 1.5454397132830155 0 0 0
439 3 24.940289253124146 41.39797536899365 1.5454397132826685 0 0 0
344 3 1.5587673023265611 44.09784333567042 1.5454397132827602 0 0 0
345 3 4.676303562436128 44.097843335673154 1.5454397132832982 0 0 0
346 3 7.793839822545345 44.09784333567215 1.5454397132828357 0 0 0
347 3 10.91137608264929 44.097843335670234 1.5454397132828692 0 0 0
348 3 14.028912342753008 44.097843335671136 1.545439713282866 0 0 0
349 3 17.146448602859355 44.097843335669715 1.5454397132829873 0 0 0
468 3 20.263984862964914 44.09784333567078 1.5454397132829045 0 0 0
469 3 23.381521123071845 44.097843335670966 1.5454397132826685 0 0 0
350 3 3.1175354323778777 46.79771130234746 1.5454397132831041 0 0 0
351 3 6.235071692492705 46.79771130234814 1.5454397132828637 0 0 0
352 3 9.352607952597223 46.79771130234751 1.5454397132824307 0 0 0
353 3 12.470144212701305 46.79771130234604 1.5454397132823927 0 0 0
354 3 15.587680472808001 46.7977113023463 1.5454397132832098 0 0 0
470 3 18.705216732913215 46.79771130234929 1.5454397132828694 0 0 0
471 3 21.82275299301865 46.79771130234789 1.545439713282724 0 0 0
472 3 24.94028925312233 46.797711302347295 1.5454397132827777 0 0 0
355 3 1.5587673023287443 49.497579269023674 1.5454397132833717 0 0 0
356 3 4.676303562437702 49.4975792690243 1.545439713282271 0 0 0
357 3 7.793839822545007 49.49757926902441 1.54543971328323 0 0 0
358 3 10.911376082647815 49.497579269024826 1.545439713282518 0 0 0
359 3 14.028912342752903 49.497579269024634 1.5454397132829276 0 0 0
360 3 17.146448602860083 49.497579269026 1.5454397132823146 0 0 0
473 3 20.26398486296701 49.497579269025586 1.5454397132830053 0 0 0
474 3 23.38152112307038 49.49757926902638 1.5454397132827746 0 0 0
361 3 3.1175354323814557 52.19744723570304 1.545439713284594 0 0 0
362 3 6.235071692493939 52.197447235702846 1.5454397132832935 0 0 0
363 3 9.35260795259869 52.19744723570041 1.5454397132827045 0 0 0
364 3 12.47014421270107 52.19744723570285 1.5454397132834319 0 0 0
365 3 15.587680472806795 52.19744723570424 1.545439713283372 0 0 0
475 3 18.705216732913414 52.197447235702356 1.5454397132828088 0 0 0
476 3 21.82275299301869 52.197447235701354 1.5454397132828537 0 0 0
477 3 24.94028925312445 52.19744723570206 1.5454397132820368 0 0 0
366 3 1.5587673023278434 54.897315202377634 1.5454397132847122 0 0 0
367 3 4.6763035624387115 54.897315202382565 1.5454397132818434 0 0 0
368 3 7.793839822545866 54.89731520237824 1.545439713282464 0 0 0
369 3 10.911376082646436 54.897315202381066 1.5454397132822997 0 0 0
370 3 14.028912342754278 54.89731520237769 1.5454397132823023 0 0 0
371 3 17.14644860286014 54.89731520238007 1.5454397132824482 0 0 0
478 3 20.263984862965373 54.89731520237799 1.5454397132828288 0 0 0
479 3 23.381521123070605 54.897315202379666 1.545439713283097 0 0 0
504 1 24.9402892531243 55.7972716342123 3.1043466666672352 0 0 0
291 2 3.1175354323903837 30.598503502285165 4.663253620051866 0 0 0
502 1 21.822752993017602 55.79727163421249 3.104346666667069 0 0 0
293 2 6.235071692492167 30.598503502285098 4.6632536200500505 0 0 0
500 1 18.705216732913108 55.7972716342132 3.1043466666665647 0 0 0
295 2 9.352607952595807 30.598503502283982 4.66325362005106 0 0 0
426 1 15.587680472806746 55.797271634213665 3.1043466666663235 0 0 0
297 2 12.470144212700838 30.59850350228399 4.663253620050366 0 0 0
424 1 12.470144212701479 55.79727163421279 3.104346666665208 0 0 0
299 2 15.587680472807596 30.598503502284746 4.663253620050787 0 0 0
422 1 9.352607952595749 55.797271634213566 3.1043466666673756 0 0 0
443 2 18.705216732912632 30.598503502284746 4.663253620050537 0 0 0
420 1 6.235071692492851 55.797271634213374 3.1043466666659114 0 0 0
445 2 21.822752993017502 30.598503502284416 4.663253620050325 0 0 0
418 1 3.1175354323829683 55.7972716342154 3.104346666666221 0 0 0
447 2 24.94028925312388 30.598503502283837 4.663253620050314 0 0 0
289 1 1.5587673023342958 31.498459934121243 3.104346666671112 0 0 0
300 2 1.5587673023264557 33.29837146896684 4.663253620054062 0 0 0
290 1 4.676303562439855 31.49845993411997 3.104346666665747 0 0 0
301 2 4.676303562431492 33.29837146896466 4.6632536200487 0 0 0
292 1 7.793839822544404 31.498459934119325 3.1043466666671558 0 0 0
303 2 7.793839822543605 33.29837146896283 4.6632536200508135 0 0 0
294 1 10.911376082648516 31.498459934117736 3.104346666666623 0 0 0
305 2 10.911376082651254 33.29837146896018 4.663253620050522 0 0 0
296 1 14.028912342754081 31.498459934118735 3.1043466666670745 0 0 0
307 2 14.028912342755108 33.2983714689624 4.663253620050485 0 0 0
298 1 17.146448602859753 31.498459934118735 3.104346666666901 0 0 0
309 2 17.146448602858705 33.29837146896158 4.663253620050399 0 0 0
444 1 20.263984862964893 31.49845993411886 3.1043466666667614 0 0 0
449 2 20.263984862965092 33.29837146896192 4.663253620050747 0 0 0
446 1 23.381521123070847 31.498459934117914 3.104346666666405 0 0 0
451 2 23.381521123071142 33.298371468961506 4.663253620050407 0 0 0
302 1 3.1175354323763114 34.198327900796635 3.1043466666658004 0 0 0
313 2 3.1175354323781743 35.998239435639036 4.663253620049059 0 0 0
304 1 6.235071692488673 34.198327900796116 3.1043466666665016 0 0 0
315 2 6.235071692488616 35.99823943563881 4.663253620050427 0 0 0
306 1 9.352607952598063 34.19832790079615 3.1043466666668635 0 0 0
317 2 9.352607952597875 35.99823943563946 4.66325362005031 0 0 0
308 1 12.470144212702765 34.198327900796336 3.104346666666524 0 0 0
319 2 12.470144212701355 35.9982394356393 4.663253620050345 0 0 0
310 1 15.587680472807135 34.19832790079641 3.104346666665993 0 0 0
321 2 15.587680472807504 35.99823943563822 4.663253620050595 0 0 0
448 1 18.705216732912223 34.198327900795285 3.1043466666665602 0 0 0
453 2 18.705216732912977 35.99823943563824 4.663253620050482 0 0 0
450 1 21.822752993018142 34.19832790079657 3.1043466666671473 0 0 0
455 2 21.822752993018053 35.99823943564079 4.663253620050491 0 0 0
452 1 24.9402892531245 34.198327900796954 3.104346666666595 0 0 0
457 2 24.94028925312416 35.99823943564034 4.663253620050465 0 0 0
311 1 1.5587673023316524 36.89819586747562 3.104346666666101 0 0 0
322 2 1.5587673023287731 38.69810740231461 4.663253620052447 0 0 0
312 1 4.676303562433543 36.898195867469816 3.1043466666662836 0 0 0
323 2 4.676303562434201 38.698107402314264 4.663253620049172 0 0 0
314 1 7.793839822543434 36.89819586747326 3.1043466666671744 0 0 0
325 2 7.793839822545648 38.69810740231724 4.6632536200506 0 0 0
316 1 10.91137608264962 36.8981958674741 3.104346666666407 0 0 0
327 2 10.911376082649717 38.698107402317135 4.663253620050372 0 0 0
318 1 14.028912342754786 36.89819586747304 3.1043466666672517 0 0 0
329 2 14.028912342754465 38.69810740231638 4.663253620050775 0 0 0
320 1 17.14644860285982 36.89819586747354 3.1043466666669994 0 0 0
331 2 17.146448602859188 38.69810740231686 4.663253620050277 0 0 0
454 1 20.263984862965273 36.89819586747317 3.1043466666664896 0 0 0
459 2 20.263984862965238 38.698107402316474 4.663253620050387 0 0 0
456 1 23.38152112307113 36.8981958674737 3.104346666666417 0 0 0
461 2 23.3815211230715 38.69810740231606 4.663253620050439 0 0 0
324 1 3.1175354323807483 39.598063834148284 3.1043466666656565 0 0 0
335 2 3.1175354323799462 41.39797536899155 4.6632536200487955 0 0 0
326 1 6.235071692490475 39.598063834149315 3.1043466666669013 0 0 0
337 2 6.235071692491366 41.397975368994786 4.66325362004961 0 0 0
328 1 9.352607952598081 39.598063834151496 3.104346666666582 0 0 0
339 2 9.352607952597953 41.39797536899474 4.6632536200506935 0 0 0
330 1 12.470144212702174 39.598063834149784 3.1043466666664745 0 0 0
341 2 12.470144212701879 41.39797536899262 4.663253620050427 0 0 0
332 1 15.587680472806206 39.598063834151795 3.104346666666462 0 0 0
343 2 15.58768047280578 41.39797536899452 4.663253620050033 0 0 0
458 1 18.70521673291276 39.59806383414982 3.1043466666664012 0 0 0
463 2 18.705216732913353 41.39797536899244 4.663253620050569 0 0 0
460 1 21.82275299301846 39.598063834150494 3.1043466666670336 0 0 0
465 2 21.82275299301995 41.39797536899386 4.663253620050814 0 0 0
462 1 24.940289253123378 39.59806383415052 3.1043466666663684 0 0 0
467 2 24.940289253124345 41.39797536899332 4.663253620050138 0 0 0
333 1 1.5587673023288808 42.297931800826504 3.104346666666235 0 0 0
372 2 1.558767302326918 44.097843335669765 4.663253620050884 0 0 0
334 1 4.676303562435419 42.29793180082696 3.1043466666660176 0 0 0
373 2 4.676303562435602 44.09784333567088 4.663253620050298 0 0 0
336 1 7.793839822545544 42.297931800828835 3.104346666666581 0 0 0
375 2 7.793839822545799 44.09784333567228 4.663253620050825 0 0 0
338 1 10.911376082650067 42.297931800827165 3.1043466666667996 0 0 0
377 2 10.911376082648985 44.09784333567026 4.663253620051051 0 0 0
340 1 14.028912342753097 42.29793180082768 3.104346666666389 0 0 0
379 2 14.028912342752959 44.09784333567023 4.663253620050874 0 0 0
342 1 17.146448602860062 42.297931800826206 3.104346666666756 0 0 0
381 2 17.1464486028601 44.09784333566949 4.663253620050703 0 0 0
464 1 20.263984862966247 42.29793180082727 3.1043466666669675 0 0 0
481 2 20.263984862965152 44.09784333567113 4.663253620050191 0 0 0
466 1 23.381521123072023 42.297931800827584 3.1043466666664186 0 0 0
483 2 23.381521123071412 44.09784333567001 4.663253620050701 0 0 0
374 1 3.1175354323799276 44.99779976750453 3.1043466666670003 0 0 0
385 2 3.117535432380467 46.797711302348 4.663253620050567 0 0 0
376 1 6.235071692491334 44.99779976750533 3.1043466666671216 0 0 0
387 2 6.235071692490935 46.79771130234869 4.6632536200500105 0 0 0
378 1 9.352607952598028 44.997799767505114 3.104346666666761 0 0 0
389 2 9.352607952598838 46.79771130234789 4.663253620050516 0 0 0
380 1 12.470144212700692 44.99779976750503 3.104346666667047 0 0 0
391 2 12.470144212700493 46.79771130234751 4.663253620050111 0 0 0
382 1 15.587680472806715 44.997799767502975 3.1043466666671105 0 0 0
393 2 15.587680472807309 46.797711302346464 4.663253620050497 0 0 0