LAMMPS data file via write_data, version 21 Nov 2023, timestep = 447, units = metal

9521 atoms
3 atom types

0 311.75399404332114 xlo xhi
0 86.3958010003612 ylo yhi
0 50 zlo zhi
0 0 0 xy xz yz

Masses

1 95.94
2 32.065
3 32.065

Atoms # atomic

9521 3 1.5587702698977575 0.8999717814306105 1.5454519936648479 0 0 0
6363 3 4.676308149098679 0.8999715586924297 1.5454518769594405 0 0 0
6368 3 7.793845822496875 0.8999710271813469 1.54545128180833 0 0 0
6371 3 10.911384434907601 0.899969647332621 1.5454509687236544 0 0 0
6373 3 14.028926298598874 0.8999652576562578 1.5454502171148436 0 0 0
6374 3 17.146469667382714 0.8999613180918645 1.5454506219605597 0 0 0
6799 3 20.264014539726286 0.8999571376196991 1.5454545713549295 0 0 0
6930 3 23.38155965335592 0.899950258102241 1.545464223820123 0 0 0
6377 3 3.1175450445880357 3.5998462814086842 1.545459632091943 0 0 0
6336 3 6.23507692940177 3.5998428889086496 1.5454598165437397 0 0 0
6342 3 9.352608716836956 3.5998456469406426 1.545460905908918 0 0 0
6389 3 12.470150208131962 3.5998357458228583 1.5454576266315707 0 0 0
6447 3 15.587693546736919 3.5998304781888213 1.5454531105455878 0 0 0
6456 3 18.705237601297124 3.599825995316281 1.5454512714891269 0 0 0
7206 3 21.82278172836615 3.59982046006789 1.545453546308645 0 0 0
7204 3 24.940326794918395 3.599807765903618 1.5454613898276524 0 0 0
6434 3 1.5587789220685586 6.299707715500806 1.5454618643742524 0 0 0
6404 3 4.6763323926048175 6.299732428478572 1.5454898652666176 0 0 0
6402 3 7.793821557418019 6.299732128426016 1.545492077702368 0 0 0
6397 3 10.911372770219199 6.299706196473438 1.5454669769924412 0 0 0
6391 3 14.028916312395264 6.299699509017934 1.5454565996396423 0 0 0
6411 3 17.146461745223757 6.299694516719655 1.5454483693064152 0 0 0
7232 3 20.264006900956844 6.29969070774146 1.545445547882431 0 0 0
7230 3 23.381550520516193 6.299685698544178 1.5454473753935094 0 0 0
6346 3 3.117577290703101 8.999575404740353 1.545488137927172 0 0 0
6335 3 6.235076293686121 8.999568644830104 1.54537655676163 0 0 0
6366 3 9.352574229673767 8.999573381017518 1.5454936088671791 0 0 0
6430 3 12.47013641355241 8.999565943366129 1.545460773945293 0 0 0
6481 3 15.58768520059817 8.999563797180745 1.5454473386765506 0 0 0
6623 3 18.705232126573648 8.999561148281334 1.5454391811054315 0 0 0
7164 3 21.822777258064793 8.999558668994483 1.5454378853909574 0 0 0
7163 3 24.94031924306752 8.99955731647825 1.545440608753477 0 0 0
6624 3 1.558773493922593 11.699434086902178 1.5454563263255365 0 0 0
6625 3 4.676320634624134 11.699398740116646 1.5454895933761494 0 0 0
6626 3 7.793829169392599 11.699396886788291 1.5454916702806727 0 0 0
6634 3 10.911373625609626 11.69942852190591 1.5454597838524895 0 0 0
6636 3 14.028915029126518 11.699431487697082 1.5454485490247016 0 0 0
6637 3 17.146459495690635 11.699432147029585 1.5454374867216896 0 0 0
7196 3 20.26400470081211 11.699431423790903 1.5454324503267496 0 0 0
7195 3 23.38154830444542 11.699430741312732 1.5454334546024644 0 0 0
7114 3 3.117541538175934 14.399293185043629 1.5454577689200544 0 0 0
7117 3 6.235073363353653 14.399289917009716 1.5454627471239581 0 0 0
7119 3 9.352604189731206 14.399288926500933 1.545457359221525 0 0 0
7104 3 12.470146282626699 14.399298105039826 1.5454478822761175 0 0 0
7103 3 15.587688873635848 14.399301313791169 1.5454384581877714 0 0 0
7086 3 18.705233170403893 14.399302924555702 1.5454319561375043 0 0 0
6619 3 21.822777222425813 14.399303514792223 1.5454306631602162 0 0 0
6643 3 24.940319763694266 14.399303593100813 1.54543385836594 0 0 0
7111 3 1.5587652856270022 17.09917328937315 1.5454543149558417 0 0 0
7112 3 4.676303381990575 17.099168446443883 1.5454553352144205 0 0 0
7115 3 7.793839849600639 17.099166367625948 1.5454533121638105 0 0 0
7118 3 10.91137666977006 17.09916767595621 1.5454469031184142 0 0 0
7120 3 14.028918813130907 17.099170818970908 1.5454396663396568 0 0 0
7101 3 17.14646242007143 17.099173063065216 1.5454340976043552 0 0 0
6375 3 20.264006442143117 17.099174791566757 1.5454318269952374 0 0 0
6627 3 23.381550138225652 17.099176484355414 1.5454336899093235 0 0 0
7087 3 3.117532672139119 19.799046994615242 1.5454580922148828 0 0 0
7029 3 6.2350687670771805 19.79904406998754 1.545454246758106 0 0 0
7030 3 9.352606377371139 19.799042688899195 1.5454484773267234 0 0 0
7031 3 12.470148180501432 19.799041204617286 1.545442116744002 0 0 0
7032 3 15.587692379391381 19.799042980675704 1.5454378901081522 0 0 0
7033 3 18.705235512489374 19.79904494776092 1.5454358716052923 0 0 0
6697 3 21.82278021640976 19.79904700598324 1.5454364803928518 0 0 0
6674 3 24.9403242754732 19.799050693103347 1.5454415274430726 0 0 0
5481 2 1.558769472725366 0.8999639092280655 4.66326505259302 0 0 0
3009 1 3.1175398315883913 1.7999262439340926 3.104361041871833 0 0 0
5483 2 4.676307992365633 0.899961647071101 4.663265121314031 0 0 0
3057 1 6.235077191771389 1.799924078327342 3.104361270832879 0 0 0
5487 2 7.793846566701362 0.8999602092560974 4.663264503966549 0 0 0
3097 1 9.352614733179145 1.7999242470836583 3.1043606133854973 0 0 0
3105 1 12.470156103331655 1.7999192434076141 3.1043596528724224 0 0 0
5490 2 10.911385248054833 0.8999606154023614 4.663263951839776 0 0 0
3139 1 15.587697942379208 1.7999166038542131 3.1043581494618415 0 0 0
5272 2 14.028927202127448 0.8999584502277157 4.663263743030876 0 0 0
5279 2 17.146468479568757 0.8999580535958779 4.663264128310495 0 0 0
3138 1 18.705240223738624 1.7999142785583029 3.104358766661739 0 0 0
3956 2 20.264008255286164 0.8999579917136664 4.66326778784983 0 0 0
2675 1 21.82278264863745 1.7999114608808606 3.104363999536536 0 0 0
4016 2 23.38154578336803 0.8999588718597257 4.663280423432015 0 0 0
2677 1 24.94032350598114 1.7998996004605718 3.1043769920665354 0 0 0
3140 1 1.5587705813200954 4.499793021758647 3.104366483743338 0 0 0
3197 1 4.676315573143829 4.499799246266418 3.104371198351771 0 0 0
5290 2 3.1175413166712618 3.5998352563777587 4.663272510866489 0 0 0
3170 1 7.793837585581002 4.49979814744888 3.1043723473351656 0 0 0
5293 2 6.235076009501451 3.5998303045014337 4.663276069231074 0 0 0
5328 2 9.35261103423539 3.599831935393662 4.663273764620791 0 0 0
3142 1 10.911382603429132 4.499790252760491 3.1043694818775545 0 0 0
5329 2 12.470156182863324 3.599828334679411 4.663270869630127 0 0 0
3189 1 14.028924520340647 4.4997866081120375 3.1043628467543507 0 0 0
5361 2 15.587697385325315 3.599828692624166 4.663266461150354 0 0 0
3130 1 17.146466794566646 4.49978416899046 3.1043577241940703 0 0 0
2554 1 20.264009075678707 4.499781696383127 3.104356686214285 0 0 0
5364 2 18.705238043216667 3.59982829041237 4.663264610592161 0 0 0
2555 1 23.381551739154027 4.49977682050901 3.1043598950942894 0 0 0
4349 2 21.8227775953228 3.5998277503131413 4.663266748520337 0 0 0
4353 2 24.94031644398614 3.5998233751339597 4.6632742068948385 0 0 0
5366 2 1.5587629973700832 6.2997011032272905 4.66327852491366 0 0 0
3131 1 3.1175387112000856 7.199658796761983 3.1043824414777608 0 0 0
5368 2 4.6763098058783426 6.299697538296694 4.6632840341001 0 0 0
3173 1 6.235076096120634 7.199750363996925 3.1044113442657264 0 0 0
5372 2 7.7938398948407315 6.299695486938704 4.663286216904463 0 0 0
3063 1 9.35261303211057 7.199656937431449 3.1043874292381295 0 0 0
3045 1 12.470150404269852 7.199655865399343 3.1043692050321328 0 0 0
5375 2 10.91138845155886 6.299697224087158 4.6632836514936455 0 0 0
3033 1 15.587693548154874 7.1996536569755625 3.1043571436838793 0 0 0
5383 2 14.0289278599272 6.299699609014778 4.663269874002599 0 0 0
5358 2 17.146467629491536 6.299699553012115 4.663261897366963 0 0 0
3120 1 18.705236132985817 7.199651725993332 3.104350630936174 0 0 0
4325 2 20.264007300736466 6.299698398524606 4.663259015837323 0 0 0
2608 1 21.822778264108887 7.199649250008409 3.10434967734756 0 0 0
4328 2 23.381547042547044 6.299695684866197 4.663260329399761 0 0 0
2610 1 24.94031839727755 7.199648053036407 3.104352817527133 0 0 0
3111 1 1.5587791072632764 9.899528368480782 3.10436725207075 0 0 0
3104 1 4.676386691004445 9.8994779577394 3.104410376099958 0 0 0
5669 2 3.1175326506289904 8.99957575070645 4.66328219939694 0 0 0
3012 1 7.7937631385676545 9.899476766315424 3.104413456353905 0 0 0
5725 2 9.352615799958713 8.999574104576215 4.6632876449971965 0 0 0
3091 1 10.911370956523763 9.899525743166695 3.1043735229469873 0 0 0
5727 2 12.470152578247578 8.999571067870729 4.663273616662469 0 0 0
3079 1 14.028918448707325 9.8995217972187 3.1043584111227647 0 0 0
5729 2 15.587696344609697 8.999568997877786 4.663260291666508 0 0 0
3062 1 17.146463041599755 9.899521188406068 3.1043468460564085 0 0 0
2607 1 20.26400583770984 9.89952007136886 3.104342059160026 0 0 0
5708 2 18.705236690728785 8.99956834124445 4.663252661204443 0 0 0
2604 1 23.3815471363269 9.899519352013517 3.1043432385048035 0 0 0
4179 2 21.82277606250681 8.999566765900031 4.663251274577646 0 0 0
4185 2 24.940315490174054 8.999565914417907 4.663253973523896 0 0 0
5711 2 1.5587642836099358 11.699437838447585 4.663272625150668 0 0 0
3041 1 3.117539567484689 12.599380863327148 3.104368795685877 0 0 0
5714 2 4.676297551809506 11.69943543547853 4.663283701863729 0 0 0
3198 1 6.235074408263087 12.599389668935935 3.1043843655590666 0 0 0
5541 2 7.79384998476613 11.699435249651454 4.66328570762438 0 0 0
3160 1 9.352609190303765 12.599379007701177 3.104371209426969 0 0 0
3155 1 12.470149785341931 12.59938931216794 3.1043591814572706 0 0 0
5543 2 10.911385977430417 11.69943812197459 4.66327606831688 0 0 0
3154 1 15.58769228625144 12.599390078466518 3.104347495404725 0 0 0
5547 2 14.028926914882916 11.699437436141364 4.66326173341037 0 0 0
5549 2 17.146467232053116 11.699436141349283 4.66325078635841 0 0 0
3144 1 18.70523467741397 12.599390053018118 3.104339573237126 0 0 0
4370 2 20.26400649585255 11.699435436850633 4.663245790589536 0 0 0
3050 1 21.82277636025563 12.599390000333134 3.1043377713388236 0 0 0
4364 2 23.38154534631091 11.699435054587504 4.6632467959610056 0 0 0
3056 1 24.940317248583124 12.599389928491027 3.10434090822941 0 0 0
2583 1 1.5587683236120644 15.299258253247462 3.10436036108007 0 0 0
2582 1 4.676305433942161 15.29925685246988 3.1043654959149785 0 0 0
4962 2 3.1175341263068703 14.399300246944225 4.663270706407819 0 0 0
2580 1 7.793841936259303 15.299255994111997 3.1043649398293476 0 0 0
4937 2 6.235073896175953 14.399308801642588 4.66327952215775 0 0 0
5006 2 9.352614633996719 14.399300795619475 4.663270311870909 0 0 0
2673 1 10.91137892060215 15.299255725760299 3.1043565633217263 0 0 0
5009 2 12.470155350640812 14.399305831882346 4.66326106534349 0 0 0
2669 1 14.028921498409414 15.29925872267854 3.1043479952004907 0 0 0
5021 2 15.587696537703781 14.399304924463161 4.6632516067304435 0 0 0
2695 1 17.146463847649148 15.29925946011542 3.104340590794709 0 0 0
3124 1 20.264005827196556 15.299259949203453 3.104337195768526 0 0 0
4972 2 18.705236618498937 14.399303770130267 4.663245303008155 0 0 0
3022 1 23.381547296159873 15.2992607329505 3.104338506047218 0 0 0
3309 2 21.822776082469808 14.39930348590053 4.663243912385186 0 0 0
3329 2 24.940315308561217 14.399303434486342 4.66324720180055 0 0 0
4956 2 1.5587663961756157 17.0991711126112 4.663267466026342 0 0 0
2694 1 3.1175348345387905 17.99912987818499 3.1043614665896233 0 0 0
4960 2 4.676303952955285 17.09917316509287 4.6632684199894054 0 0 0
2693 1 6.2350729494756845 17.999128613588393 3.1043602280693525 0 0 0
4964 2 7.793844342175878 17.099173590024925 4.663266569115913 0 0 0
2692 1 9.35261084201658 17.999128465851534 3.1043556651498347 0 0 0
2636 1 12.470150849148732 17.99912727538908 3.1043489959689547 0 0 0
4999 2 10.911383573949534 17.09917184329114 4.663259968872884 0 0 0
2634 1 15.587693011888945 17.99912836075932 3.104343179738939 0 0 0
5013 2 14.028925188707428 17.099172584170592 4.663253078090273 0 0 0
5023 2 17.146466093572357 17.099172182527987 4.66324747753739 0 0 0
2633 1 18.705235313065206 17.999129203536256 3.1043398221317338 0 0 0
3246 2 20.264006406276494 17.099171787242366 4.663245197042227 0 0 0
3182 1 21.822777280561635 17.999130403813883 3.10433991255929 0 0 0
3312 2 23.381546309433073 17.099172412345954 4.663247023059271 0 0 0
3145 1 24.940318735018774 17.999132438976165 3.104343917144729 0 0 0
2631 1 1.5587657873456067 20.699003306256564 3.1043688056101844 0 0 0
2630 1 4.676303117360306 20.69900105467683 3.104365396861009 0 0 0
4977 2 3.117535643041258 19.79903963342797 4.663271485970049 0 0 0
2627 1 7.793839991241722 20.69900177535887 3.1043587292961763 0 0 0
4981 2 6.23507494431583 19.79904026257038 4.663267375848825 0 0 0
4830 2 9.352613025254565 19.799042273047025 4.663261513810941 0 0 0
2642 1 10.911380624167025 20.69899801167027 3.104352064695615 0 0 0
4836 2 12.470153866126044 19.799040392050486 4.663255581551397 0 0 0
2644 1 14.02892219617548 20.69899720902969 3.1043466204988106 0 0 0
4839 2 15.587694657872829 19.799040080479596 4.663251391652949 0 0 0
2661 1 17.146464709946912 20.69899796468055 3.1043448504568594 0 0 0
3184 1 20.264007273951574 20.6989991817396 3.1043438077796837 0 0 0
4841 2 18.705236708212936 19.799039916731797 4.663249283655048 0 0 0
3180 1 23.38154949453085 20.699001336414014 3.1043471570997205 0 0 0
3819 2 21.82277709879727 19.799040687141034 4.66324980144881 0 0 0
3758 2 24.940317466293344 19.799042592641786 4.663254384863694 0 0 0
5174 2 3.796366178205186e-07 8.999573195261393 4.663268633805635 1 0 0
6876 3 2.4684353234111492e-06 3.5998379328718424 1.545456002926406 1 0 0
1763 1 1.0368870445644278e-06 7.19965927590389 3.1043638317228983 1 0 0
6960 3 1.0783521082414925e-05 8.999570497403756 1.5454557065712107 1 0 0
7036 3 1.5587680072630257 22.49892700598963 1.5454714458296104 0 0 0
7038 3 4.6762991160977405 22.498921332230974 1.5454652768956114 0 0 0
7041 3 7.793830254331174 22.49892298808064 1.5454576623135365 0 0 0
7043 3 10.911374610692393 22.498913997504037 1.5454478206479534 0 0 0
7044 3 14.028920900967577 22.498912665153863 1.545442227870065 0 0 0
7025 3 17.146465082164674 22.498913491105522 1.5454411081804593 0 0 0
6654 3 20.264009632802132 22.498915712316546 1.5454410325067742 0 0 0
6657 3 23.381556571800143 22.498919422864738 1.545445867649579 0 0 0
7012 3 3.117555100734027 25.198812539715643 1.5455055477820434 0 0 0
7014 3 6.235042181827674 25.198811868180268 1.5454970139808044 0 0 0
7015 3 9.352596715416764 25.19878699464115 1.5454606219469544 0 0 0
7062 3 12.470146239320876 25.19878318839038 1.5454485942292346 0 0 0
7150 3 15.587693023804391 25.198781917555632 1.5454453356510354 0 0 0
7160 3 18.705238172613882 25.198782214116 1.5454446529175514 0 0 0
6665 3 21.822786365491353 25.19878490134134 1.5454476163858537 0 0 0
6505 3 24.94033639486049 25.19879057540221 1.5454597660724818 0 0 0
7161 3 1.558801031385467 27.898652473498903 1.5455120203049555 0 0 0
7162 3 4.676299561343593 27.89864790752143 1.5453926929034358 0 0 0
7259 3 7.793798448864166 27.898655548532098 1.545497180536601 0 0 0
7260 3 10.911366163234158 27.898651460231594 1.5454591578486008 0 0 0
7261 3 14.02891841354926 27.898651406166607 1.5454512861603986 0 0 0
7262 3 17.146464779722805 27.89864970821834 1.5454479930490246 0 0 0
6585 3 20.26401251546141 27.89864921881471 1.545446109243251 0 0 0
6583 3 23.381567852150685 27.898649771661898 1.5454523760139953 0 0 0
6761 3 3.117551060811034 30.5984766577468 1.545513645378687 0 0 0
6762 3 6.235057568955405 30.598480217043324 1.5455090656335473 0 0 0
6763 3 9.352602104985042 30.59851620757335 1.5454713730175735 0 0 0
6768 3 12.470145866868293 30.598520782964467 1.5454614592237355 0 0 0
6769 3 15.587690820125966 30.598518115907655 1.5454544227976985 0 0 0
6771 3 18.705235632196107 30.598515743007102 1.5454469284903196 0 0 0
8820 3 21.822784450866568 30.598514391995774 1.5454433053983463 0 0 0
8821 3 24.94033543278689 30.59851199622321 1.5454511393196808 0 0 0
6773 3 1.558780310817821 33.298365199560706 1.5454845139289186 0 0 0
6774 3 4.676313299394249 33.29837618224156 1.5454927200895974 0 0 0
6759 3 7.793836560686214 33.29837700674857 1.5454856719608616 0 0 0
6775 3 10.91137146847923 33.29839228380704 1.5454761684226546 0 0 0
6758 3 14.028915774641254 33.298386064290554 1.545464301649274 0 0 0
6756 3 17.14646067641292 33.2983826161685 1.545450719974849 0 0 0
8826 3 20.264008037350493 33.298381157038214 1.5454391665015197 0 0 0
8827 3 23.381558834033076 33.29838020492849 1.545437537410548 0 0 0
6742 3 3.1175529655963334 35.99824096390079 1.5454869616719613 0 0 0
6743 3 6.235101525875414 35.998269061541286 1.5455163735555233 0 0 0
6744 3 9.35258629723069 35.998273350739964 1.5455122328287374 0 0 0
6874 3 12.470138889316614 35.99825258513621 1.5454765801619759 0 0 0
6890 3 15.587685378346773 35.998249078047536 1.5454560765971366 0 0 0
6873 3 18.705233376405943 35.99824795314705 1.5454380335898223 0 0 0
8813 3 21.82278420341821 35.99824885215531 1.5454289313867473 0 0 0
8812 3 24.940335773241085 35.99824853220687 1.5454348464994039 0 0 0
6871 3 1.5587872181686018 38.698103289668545 1.5454687807465108 0 0 0
6856 3 4.676350737922322 38.6981106767563 1.5455076118558488 0 0 0
6857 3 7.793846529895365 38.698107136111425 1.5453965011311321 0 0 0
6858 3 10.911343188332365 38.69811568722463 1.5455046846455205 0 0 0
6860 3 14.02890742987652 38.69811290627124 1.5454614876548955 0 0 0
6917 3 17.146458954845794 38.69811469104222 1.5454392885636732 0 0 0
8708 3 20.264010231419697 38.6981166809304 1.5454247073742133 0 0 0
8707 3 23.38156244752053 38.698119153199436 1.5454245726782634 0 0 0
6921 3 3.1175497970297745 41.397968276175796 1.5454632250981772 0 0 0
6922 3 6.235095062574225 41.3979359896452 1.5455016180857735 0 0 0
6923 3 9.352602082540702 41.397938572048574 1.5455021668008793 0 0 0
6924 3 12.470146227500766 41.397974526135435 1.5454631849686091 0 0 0
6926 3 15.58768940833987 41.39798065756094 1.5454429868039319 0 0 0
6928 3 18.705238376766264 41.39798448364964 1.5454249156075606 0 0 0
8702 3 21.82279011533181 41.39798811166518 1.5454198270847606 0 0 0
8701 3 24.9403392807816 41.39799142303991 1.5454295576632584 0 0 0
4843 2 1.5587703865990477 22.498908719968743 4.66328436988059 0 0 0
2450 1 3.117541883357553 23.398875953285135 3.1043820626940524 0 0 0
4818 2 4.676306367037207 22.498905777212652 4.663281815719842 0 0 0
2446 1 6.235063717422712 23.39887544110398 3.1043744460461724 0 0 0
4801 2 7.793841751946238 22.49890991302265 4.6632706597880595 0 0 0
2442 1 9.35260867311892 23.398868737875873 3.104361644847935 0 0 0
2412 1 12.47015091386754 23.398866710320075 3.1043518493401954 0 0 0
4793 2 10.911384295054873 22.498908238657837 4.663261062000943 0 0 0
2410 1 15.587693768266016 23.398866593089018 3.1043493265032094 0 0 0
4796 2 14.028923490044559 22.49890843768807 4.6632553614087655 0 0 0
4798 2 17.146465700851767 22.498908732020432 4.663254576204868 0 0 0
2409 1 18.705236909495778 23.398867402124715 3.1043488977871805 0 0 0
3637 2 20.264007849433657 22.498909200374758 4.663254164798457 0 0 0
3171 1 21.82278019738261 23.398869216254123 3.1043510648528776 0 0 0
3642 2 23.381547414411568 22.498909631895994 4.6632589647670715 0 0 0
3037 1 24.940323019126954 23.39887283417725 3.1043606794108887 0 0 0
2405 1 1.558765213413851 26.09873455143033 3.1044038088165684 0 0 0
2403 1 4.676302865660117 26.098827228941254 3.104424480849841 0 0 0
4857 2 3.117540545099597 25.198770517187096 4.663299754156525 0 0 0
2418 1 7.793840096294385 26.09873482761197 3.1043869455401123 0 0 0
4875 2 6.2350730753119326 25.198770382494548 4.663291214398387 0 0 0
4868 2 9.352619233428099 25.198773683400045 4.663277288482408 0 0 0
2433 1 10.91137809908338 26.098735312740818 3.104361941187009 0 0 0
5153 2 12.470154459652452 25.198776586024646 4.663261760351663 0 0 0
2432 1 14.028922025028143 26.098735176557938 3.104354156912195 0 0 0
5156 2 15.587694793639812 25.19877757627131 4.663258715013661 0 0 0
2402 1 17.14646599372101 26.098735243197755 3.104352623587602 0 0 0
3069 1 20.26401009346133 26.098736327983588 3.1043523364525756 0 0 0
5158 2 18.705238141788595 25.198778701748257 4.66325805088784 0 0 0
3127 1 23.38155467278293 26.098738565323877 3.1043600718720388 0 0 0
3705 2 21.822778172331727 25.198779941221684 4.6632607039608756 0 0 0
3564 2 24.940313955553673 25.198778781486087 4.663276261222577 0 0 0
5160 2 1.5587618803017744 27.898649575431865 4.663305762728224 0 0 0
2942 1 3.1176146818030577 28.79855352691702 3.1044321600696105 0 0 0
2940 1 6.234992278044007 28.798554625383847 3.1044248422930254 0 0 0
5168 2 7.7938491622571044 27.89864796979994 4.663291096434711 0 0 0
2939 1 9.352599830197633 28.798604715486995 3.1043758249370534 0 0 0
2937 1 12.47014762778455 28.798602813006713 3.104362279319376 0 0 0
5204 2 10.911381238751382 27.898645081362215 4.663271874257065 0 0 0
2938 1 15.587693993333577 28.79860288752479 3.104357698027386 0 0 0
5246 2 14.028923209336929 27.898644970154148 4.663264206248716 0 0 0
5170 2 17.146468526242504 27.89864650248384 4.6632615055821445 0 0 0
2941 1 18.705239303262534 28.79860328469292 3.104353450292689 0 0 0
3587 2 20.264012480641306 27.898648982259292 4.66325895952104 0 0 0
3168 1 21.82278574070049 28.798604055868076 3.104352662895268 0 0 0
3851 2 23.381553352480616 27.898653177445155 4.663265047274739 0 0 0
3196 1 24.94033483248911 28.79860892155966 3.1043655033163433 0 0 0
2499 1 1.5587704709491286 31.49845321360558 3.104394752793514 0 0 0
2498 1 4.676306636411474 31.498468210953742 3.104407619783069 0 0 0
5093 2 3.1175311471608604 30.59850962470659 4.663307334747687 0 0 0
2497 1 7.793839541726143 31.498458108239873 3.1043897043277964 0 0 0
5095 2 6.235083411689517 30.598507337832068 4.663303180173592 0 0 0
5099 2 9.35261734355688 30.59850887493387 4.663287320668308 0 0 0
2496 1 10.911378548725015 31.498471366882878 3.1043752589059492 0 0 0
5114 2 12.470154786214254 30.598511482742015 4.663274126536352 0 0 0
2662 1 14.028922880046839 31.498470379019736 3.104366634640947 0 0 0
5104 2 15.587698796269784 30.598513180564478 4.663267863588992 0 0 0
2963 1 17.146467168200527 31.4984706864884 3.1043578814172723 0 0 0
3076 1 20.264011448811633 31.498471221660573 3.1043492236872505 0 0 0
5108 2 18.70524326953131 30.598516185108036 4.663260411128689 0 0 0
3070 1 23.381555806364087 31.49847165464375 3.1043494076218794 0 0 0
3429 2 21.822783111293685 30.598519181618727 4.663256376514802 0 0 0
3435 2 24.940318408751665 30.59852180813285 4.663267192319682 0 0 0
5110 2 1.5587653600770157 33.29837176416175 4.663297080159496 0 0 0
2901 1 3.117540988718289 34.198330415219154 3.104396199290797 0 0 0
5112 2 4.676310707378406 33.298382247844984 4.663308912923205 0 0 0
2900 1 6.235082950547018 34.19833820371491 3.1044003589705893 0 0 0
6270 2 7.793847178052676 33.29836956120224 4.663301318214625 0 0 0
2897 1 9.352602925397328 34.19833959210999 3.104392398984057 0 0 0
2896 1 12.470151004244835 34.1983380728816 3.1043799341015106 0 0 0
6251 2 10.91138370252776 33.29837844879825 4.663288725980873 0 0 0
2923 1 15.58769545714106 34.19833820447154 3.104364302954467 0 0 0
6291 2 14.028930530361265 33.29837990394126 4.6632772766329875 0 0 0
6197 2 17.146474433083707 33.29838449320258 4.663264068267062 0 0 0
2922 1 18.7052397094065 34.19833879223198 3.104349038200498 0 0 0
3484 2 20.264015762031427 33.298386969060054 4.663252374090796 0 0 0
3008 1 21.822783991506125 34.19833949207966 3.1043403244485197 0 0 0
3490 2 23.381552788368655 33.298388539118115 4.66325057409958 0 0 0
3059 1 24.940328726242402 34.198337981753056 3.1043457757487887 0 0 0
2921 1 1.5587730222061424 36.89819744239107 3.1043828352726717 0 0 0
2920 1 4.676309288853137 36.89819850733811 3.104407252679779 0 0 0
6221 2 3.117531372834951 35.9982438009581 4.663303552245986 0 0 0
2919 1 7.793845610889071 36.89829209907951 3.10443503479678 0 0 0
6126 2 6.23508107482613 35.99823987034881 4.663310331081162 0 0 0
6300 2 9.352614065132718 35.99823851455243 4.663305755948333 0 0 0
2917 1 10.91138311487225 36.89820156396015 3.1044013939586628 0 0 0
6247 2 12.470165320003515 35.99824608976217 4.663293112357265 0 0 0
2860 1 14.028922752925142 36.89820466828601 3.104372252626504 0 0 0
6243 2 15.587706207373238 35.99825292055709 4.663269327286174 0 0 0
2857 1 17.146468084851435 36.898205812059246 3.1043507400998793 0 0 0
3179 1 20.264012730655985 36.898206864298125 3.1043357860973755 0 0 0
6262 2 18.70524744555358 35.99825517985056 4.663251488913685 0 0 0
3185 1 23.38155716684146 36.89820759411015 3.1043339857607775 0 0 0
3828 2 21.822785815551583 35.99825574249726 4.663242246071501 0 0 0
4506 2 24.940322226412665 35.998254913665434 4.663247691848399 0 0 0
6281 2 1.5587683338968956 38.698117246662505 4.663281766766958 0 0 0
2853 1 3.1175507635842337 39.598068245337046 3.1043810096064117 0 0 0
6284 2 4.676302418937055 38.6981208342046 4.663301413479202 0 0 0
2868 1 6.235158150910086 39.59801976626503 3.104428294125606 0 0 0
2870 1 9.352536784413445 39.598021241368095 3.104427449137941 0 0 0
2885 1 12.470145278721855 39.59807228548644 3.1043778830845423 0 0 0
6311 2 10.911394427837273 38.6981220887985 4.663298571049957 0 0 0
2969 1 15.587694644190004 39.598071426663516 3.1043536940835796 0 0 0
6288 2 14.028932442507838 38.698121760191356 4.663274287396637 0 0 0
5916 2 17.146477410448252 38.69812216906068 4.663252157012036 0 0 0
2967 1 18.705241295248907 39.59807367644382 3.1043346334081474 0 0 0
4569 2 20.264017474572903 38.69812264388471 4.663238094207255 0 0 0
3172 1 21.822786220616887 39.5980752622808 3.1043274304967117 0 0 0
4532 2 23.381554327183014 38.6981223826048 4.66323789741995 0 0 0
3038 1 24.940329765408716 39.59807756685941 3.104335935046739 0 0 0
2966 1 1.5587714666421308 42.29793220909322 3.104359247870469 0 0 0
2999 1 4.676312214062246 42.29792216562296 3.104375736541887 0 0 0
5761 2 3.1175332283672317 41.397983971740274 4.6632795389980135 0 0 0
2990 1 7.793848147577464 42.29793276243033 3.1043944305620808 0 0 0
5812 2 6.235069349312055 41.39798273815864 4.663295611695216 0 0 0
5817 2 9.352626606038777 41.39798285121019 4.663296134575745 0 0 0
2987 1 10.911384690704004 42.29792432840928 3.104377888859831 0 0 0
5820 2 12.470166366799992 41.39798576346181 4.663279282800182 0 0 0
2985 1 14.028927234672455 42.2979367484436 3.1043580804170863 0 0 0
5826 2 15.587709870423607 41.39798742260792 4.663256030747119 0 0 0
2964 1 17.146471847284175 42.29794008119341 3.1043376464172896 0 0 0
3101 1 20.264016284084967 42.29794230988766 3.1043260926933316 0 0 0
5829 2 18.705249791907136 41.39798823638423 4.663238152645333 0 0 0
3114 1 23.381559955080462 42.297944648585144 3.104329887306255 0 0 0
4451 2 21.822786617692582 41.39798817761446 4.663233184530903 0 0 0
4473 2 24.94032418742816 41.397989718754395 4.663243050053161 0 0 0
7308 3 5.389252723423637e-06 41.397971881235804 1.545450524924915 1 0 0
1561 1 4.021683073358437e-06 39.59806412709126 3.104363435793398 1 0 0
6820 3 9.01410208151146e-07 25.198788182941588 1.5454849290641597 1 0 0
1573 1 1.874724173073348e-06 34.198326468800076 3.104382415664135 1 0 0
1515 1 3.7797262681439926e-06 28.798600738286257 3.1043940915455632 1 0 0
7238 3 3.475275513328449e-06 30.598505026272058 1.5454828125639208 1 0 0
7282 3 9.47955437736211e-06 35.99823555147897 1.5454711469920557 1 0 0
7307 3 1.5587745371489465 44.09783931185728 1.5454456072750318 0 0 0
7306 3 4.676319807372663 44.09782966050451 1.545458783276276 0 0 0
7313 3 7.793850697270521 44.09783013735246 1.5454694578205361 0 0 0
7305 3 10.911380224829719 44.09783340465016 1.5454634970239491 0 0 0
7303 3 14.028922091966342 44.097845653140276 1.5454473067145749 0 0 0
7302 3 17.1464676092459 44.09785201990891 1.5454292572958517 0 0 0
8954 3 20.26401808182882 44.09785666768561 1.5454203297205562 0 0 0
8955 3 23.381567429475716 44.09785986402481 1.5454253997038636 0 0 0
7301 3 3.1175451354258406 46.797708956492585 1.5454425035905572 0 0 0
7300 3 6.2350841344922365 46.797706711221934 1.545453706146114 0 0 0
7299 3 9.35261915655349 46.79770746298405 1.545457490207632 0 0 0
7298 3 12.470155460682108 46.79771140523992 1.5454492240655182 0 0 0
7061 3 15.587698545562773 46.79771858071757 1.54543530681477 0 0 0
7060 3 18.70524652413462 46.797724482865526 1.5454252478214379 0 0 0
8961 3 21.82279556432118 46.797727746855735 1.5454261813746635 0 0 0
8968 3 24.9403453797568 46.79773155110433 1.5454381219143638 0 0 0
7059 3 1.5587721160949193 49.49758342885541 1.5454349995463528 0 0 0
7052 3 4.676313694813612 49.497581888125296 1.5454429444896225 0 0 0
7106 3 7.793851788462786 49.497580591915884 1.545449490510647 0 0 0
7105 3 10.911389047718647 49.49758135798913 1.5454474019376996 0 0 0
6702 3 14.02893028468912 49.49758477764642 1.5454386081860534 0 0 0
7007 3 17.146476064394633 49.497590419938355 1.5454308617566077 0 0 0
8966 3 20.26402377552142 49.497594485548156 1.545429985249414 0 0 0
8967 3 23.381573386160728 49.497597961286935 1.5454381289860775 0 0 0
6700 3 3.117542180172889 52.19745460292741 1.5454381468497997 0 0 0
6508 3 6.235082185347689 52.19745330618174 1.5454439988775375 0 0 0
6361 3 9.352619969897198 52.19745246855439 1.5454444381336185 0 0 0
6357 3 12.470160683242524 52.197453413891125 1.5454381032946702 0 0 0
6362 3 15.58770571365394 52.1974561674256 1.5454323004419783 0 0 0
6365 3 18.70525258228625 52.19745967568827 1.5454320105886108 0 0 0
8849 3 21.822801159912018 52.19746323247342 1.5454389108627653 0 0 0
8847 3 24.94035146618345 52.19746656993286 1.5454555269880672 0 0 0
6369 3 1.5587706480189714 54.897324839636056 1.545435798747458 0 0 0
6386 3 4.676311893466288 54.89732414356412 1.5454401623204068 0 0 0
6372 3 7.793850625342899 54.89732339070144 1.5454421466250081 0 0 0
6355 3 10.911390006556253 54.897323597738385 1.5454372553053988 0 0 0
6347 3 14.028934116589083 54.89732473123023 1.5454306961425044 0 0 0
6435 3 17.146481141808653 54.897326335467326 1.545430056212708 0 0 0
8842 3 20.264028937390698 54.897328339469695 1.5454367135550195 0 0 0
8841 3 23.381577992512717 54.89732951225294 1.5454508049842692 0 0 0
6606 3 3.1175412670265112 57.59719490027015 1.545436998635332 0 0 0
6644 3 6.235081382650819 57.59719447722525 1.54543995074705 0 0 0