LAMMPS data file via write_data, version 21 Nov 2023, timestep = 337, units = metal

9568 atoms
3 atom types

0 311.7541549491627 xlo xhi
0 86.3958458334517 ylo yhi
0 50 zlo zhi
0 0 0 xy xz yz

Masses

1 95.94
2 32.065
3 32.065

Atoms # atomic

9568 3 1.5587697756075454 0.8999566922885751 1.545440260380305 0 0 0
6410 3 4.676311312479048 0.8999567179409702 1.5454402784708465 0 0 0
6415 3 7.793852873019129 0.8999567074438681 1.5454402671384049 0 0 0
6418 3 10.911394437458032 0.8999566748466097 1.5454402616613456 0 0 0
6420 3 14.028935965995359 0.8999566506950528 1.545440251438152 0 0 0
6421 3 17.146477496508762 0.8999567104538001 1.5454401829051674 0 0 0
6846 3 20.264019261382035 0.8999568677985915 1.5454403779998442 0 0 0
6977 3 23.38156079219456 0.8999566107536999 1.5454409222410588 0 0 0
6424 3 3.117540610560676 3.599827108688932 1.5454407018729985 0 0 0
6383 3 6.235082110219894 3.5998271730593228 1.5454408107573447 0 0 0
6389 3 9.352623647389942 3.5998271871889593 1.5454407990654608 0 0 0
6436 3 12.47016515899981 3.5998271587600827 1.5454406917768109 0 0 0
6494 3 15.587706673026124 3.599827118690323 1.5454405074103053 0 0 0
6503 3 18.70524835082394 3.599827159002672 1.545440469875111 0 0 0
7253 3 21.822790012866232 3.5998270604217018 1.5454407765998732 0 0 0
7251 3 24.940331209816115 3.599826769360823 1.545440055393577 0 0 0
6481 3 1.5587698343805565 6.2996972446801855 1.5454410153537703 0 0 0
6451 3 4.676311339537818 6.299697121609177 1.5454411136367845 0 0 0
6449 3 7.793852882567822 6.2996970671598325 1.5454411344349428 0 0 0
6444 3 10.911394438331952 6.299697140013606 1.5454411251675173 0 0 0
6438 3 14.028935902436581 6.299697254645872 1.5454410452939047 0 0 0
6458 3 17.14647743918841 6.2996973468510795 1.5454409000726443 0 0 0
7279 3 20.264019142663898 6.299697340698787 1.5454410242284604 0 0 0
7277 3 23.381560473762672 6.299697101792569 1.545440774139604 0 0 0
6393 3 3.1175404020732356 8.999566677317311 1.5454394927000616 0 0 0
6382 3 6.235082098912596 8.999566461503228 1.545439104669442 0 0 0
6413 3 9.352623681066259 8.999566467969588 1.5454391095738025 0 0 0
6477 3 12.470165375049945 8.999566691954293 1.5454395269283836 0 0 0
6528 3 15.587706874675554 8.999567006638832 1.5454401650754486 0 0 0
6670 3 18.705248477254013 8.999567342166298 1.545440801880753 0 0 0
7211 3 21.822789960662345 8.999567452338223 1.5454414067958988 0 0 0
7210 3 24.94033083690556 8.999567412397894 1.5454403510549566 0 0 0
6671 3 1.5587698828531136 11.699437398310675 1.545437426396017 0 0 0
6672 3 4.676311608243078 11.699437652195517 1.5454367027269778 0 0 0
6673 3 7.793852890936205 11.699437845936302 1.5454365777940346 0 0 0
6681 3 10.91139419143541 11.699437664404627 1.5454367239470028 0 0 0
6683 3 14.028935843513308 11.699437405926632 1.5454374303175202 0 0 0
6684 3 17.146477528905503 11.699437253887787 1.545438686323692 0 0 0
7243 3 20.26401946046422 11.699437390518293 1.5454403677519792 0 0 0
7242 3 23.381560721302833 11.699437573682632 1.5454416356638199 0 0 0
7161 3 3.117541894531227 14.399309980066576 1.5454363762644867 0 0 0
7164 3 6.235082477581516 14.399310657256951 1.545436875928411 0 0 0
7166 3 9.352623314605976 14.399310659754285 1.5454368787857604 0 0 0
7151 3 12.470163933873673 14.39930999807308 1.5454364165627188 0 0 0
7150 3 15.587705743446456 14.399308953024422 1.545436387724841 0 0 0
7133 3 18.70524777659236 14.399307858103828 1.5454374418788122 0 0 0
6666 3 21.822790349659353 14.399307426138451 1.5454398452797002 0 0 0
6690 3 24.940331420843474 14.399307671624715 1.5454416996161595 0 0 0
7158 3 1.5587731904776874 17.099182790704116 1.5454381913339243 0 0 0
7159 3 4.676313340188674 17.099184085512313 1.545440490159225 0 0 0
7162 3 7.793852889834278 17.099184591937174 1.5454413547153738 0 0 0
7165 3 10.911392481156877 17.099184091182206 1.545440499308912 0 0 0
7167 3 14.028932691998657 17.099182829760103 1.5454382883219007 0 0 0
7148 3 17.146475338430196 17.09918033962928 1.5454367868754078 0 0 0
6422 3 20.264017935344423 17.099178609883243 1.5454369526487923 0 0 0
6674 3 23.381561106445616 17.09917758293652 1.5454395599306996 0 0 0
7134 3 3.1175471033402555 19.79905876786391 1.5454476102503847 0 0 0
7076 3 6.235085276734832 19.79906020264155 1.5454524036570483 0 0 0
7077 3 9.352620511890056 19.79906020650255 1.5454523999558738 0 0 0
7078 3 12.470158773045258 19.79905878615749 1.5454476716169143 0 0 0
7079 3 15.587700533250262 19.799054062903355 1.5454417202391355 0 0 0
7080 3 18.705244817316725 19.799050679185523 1.5454377777902517 0 0 0
6744 3 21.822788255996915 19.79904894747989 1.5454369490511657 0 0 0
6721 3 24.940331829645558 19.79904771867453 1.545439548447054 0 0 0
5523 2 1.5587697301809382 0.8999566398072667 4.663253511665839 0 0 0
3009 1 3.1175405262553486 1.7999133808676955 3.1043469693201695 0 0 0
5525 2 4.676311296691238 0.8999566158280415 4.663253528325463 0 0 0
3057 1 6.235082086628967 1.7999133807979695 3.1043469847342164 0 0 0
5529 2 7.793852874091869 0.8999566324555581 4.663253516775703 0 0 0
3097 1 9.352623657402663 1.7999133878052467 3.104346962674619 0 0 0
3105 1 12.470165210886035 1.7999134095620102 3.104346926058445 0 0 0
5532 2 10.911394443522594 0.8999566846127474 4.663253512929952 0 0 0
3139 1 15.58770672889773 1.7999134537319699 3.104346849999364 0 0 0
5311 2 14.028935996739262 0.8999567684651527 4.663253507266519 0 0 0
5318 2 17.146477482909166 0.8999568238582787 4.66325344283676 0 0 0
3138 1 18.70524825013409 1.799913507053289 3.1043468451455705 0 0 0
3971 2 20.26401884838872 0.8999568380432248 4.66325362411759 0 0 0
2675 1 21.822789937967823 1.7999135413087535 3.104347308200024 0 0 0
4031 2 23.38156099940937 0.8999573033126521 4.663254122061587 0 0 0
2677 1 24.9403319487558 1.7999136224134837 3.104347024048358 0 0 0
3140 1 1.5587697619575926 4.499783689564694 3.1043473953106067 0 0 0
3197 1 4.67631130249973 4.499783699498401 3.10434760492464 0 0 0
5329 2 3.1175404282365413 3.599826592711926 4.663253921317439 0 0 0
3170 1 7.79385287822067 4.499783700995498 3.1043476615376924 0 0 0
5332 2 6.2350820584979365 3.5998265416199056 4.663254023638214 0 0 0
5367 2 9.352623698460034 3.5998265399425136 4.6632540123472355 0 0 0
3142 1 10.911394454350225 4.499783710579667 3.104347601170055 0 0 0
5368 2 12.470165317661232 3.5998265897903314 4.663253913027989 0 0 0
3189 1 14.028935989877223 4.4997837183691765 3.104347422922732 0 0 0
5399 2 15.587706845320497 3.5998266808832473 4.663253740457623 0 0 0
3130 1 17.146477507595144 4.49978370328458 3.1043472182973093 0 0 0
2554 1 20.264019122072337 4.499783665963512 3.1043473639031594 0 0 0
5402 2 18.705248236364966 3.5998267242153985 4.6632537088561445 0 0 0
2555 1 23.381561011092995 4.499783640932717 3.1043473119837515 0 0 0
4370 2 21.82279002494002 3.599826950393654 4.663253993287844 0 0 0
4374 2 24.94033297088811 3.599827500927265 4.663253237988434 0 0 0
5404 2 1.5587698354570292 6.299697294234217 4.663254203034414 0 0 0
3131 1 3.1175406065743405 7.199654256798663 3.1043474641930118 0 0 0
5406 2 4.67631135099993 6.299697476518759 4.6632542883559545 0 0 0
3173 1 6.235082122556866 7.199654278671573 3.10434742319054 0 0 0
5410 2 7.793852882421133 6.29969754130416 4.663254304644217 0 0 0
3063 1 9.352623643475333 7.199654281784015 3.1043474257652974 0 0 0
3045 1 12.470165162363832 7.199654269575785 3.104347498800538 0 0 0
5413 2 10.911394407956548 6.299697476598448 4.663254299470675 0 0 0
3033 1 15.587706679360762 7.199654180640301 3.104347530908965 0 0 0
5419 2 14.028935959762178 6.299697325399322 4.663254234007335 0 0 0
5396 2 17.146477458405197 6.299697106147199 4.663254108376315 0 0 0
3120 1 18.705248245912337 7.199654026929797 3.1043475992931686 0 0 0
4345 2 20.264019031900922 6.299696984322964 4.663254232654802 0 0 0
2608 1 21.82279001268543 7.199653839949073 3.1043478038453842 0 0 0
4349 2 23.38156154346006 6.299697177406125 4.663253962147688 0 0 0
2610 1 24.940332067281204 7.199653730295023 3.1043466450839805 0 0 0
3111 1 1.5587700702134406 9.8995248445435 3.104345706127851 0 0 0
3104 1 4.676311520523753 9.899524943146924 3.1043449029419685 0 0 0
5712 2 3.1175411914885083 8.999569142260642 4.663252682629346 0 0 0
3012 1 7.793852886220731 9.899524984610201 3.104344677916222 0 0 0
5767 2 6.235082307328462 8.999569425234789 4.663252297954802 0 0 0
5770 2 9.352623460005312 8.999569426004065 4.663252302262244 0 0 0
3091 1 10.911394256513246 9.899524948685794 3.104344922873923 0 0 0
5772 2 12.470164590179001 8.99956915259483 4.6632527164538 0 0 0
3079 1 14.02893569686125 9.8995248661938 3.1043457164147576 0 0 0
5774 2 15.587706057936295 8.999568611828971 4.663253347918171 0 0 0
3062 1 17.14647722836402 9.89952467572392 3.1043466338701418 0 0 0
2607 1 20.264018913771984 9.89952435775065 3.1043476474694214 0 0 0
5752 2 18.705247597400167 8.999567902724744 4.663253982133466 0 0 0
2604 1 23.38156085926738 9.899524002624405 3.1043480437630055 0 0 0
4196 2 21.822789718420164 8.999567360090056 4.663254580895031 0 0 0
4202 2 24.940333012194465 8.999567100496774 4.6632535262292585 0 0 0
5755 2 1.5587709089319748 11.699439648361308 4.66325060323027 0 0 0
3041 1 3.1175410740124216 12.599395717296613 3.1043428926260668 0 0 0
5758 2 4.676311749638162 11.699439577899678 4.663249888968243 0 0 0
3198 1 6.235082290803227 12.59939579791717 3.104342711974506 0 0 0
5585 2 7.793852887731907 11.699439481820654 4.663249773077184 0 0 0
3160 1 9.352623491028965 12.599395798794482 3.10434271689018 0 0 0
3155 1 12.470164717502485 12.599395727257102 3.1043429298668332 0 0 0
5587 2 10.911394026632491 11.699439580931314 4.6632499088518 0 0 0
3154 1 15.587706064219352 12.599395498616921 3.104343869717039 0 0 0
5591 2 14.02893493862447 11.699439680056887 4.66325061016435 0 0 0
5593 2 17.14647615755651 11.69943943268585 4.663251861592167 0 0 0
3144 1 18.705247658203515 12.59939510411281 3.104345415241976 0 0 0
4391 2 20.264017571822585 11.699438626277773 4.663253524182272 0 0 0
3050 1 21.822789514602956 12.599394607558764 3.10434751469567 0 0 0
4385 2 23.38156034876635 11.69943766387553 4.663254779367159 0 0 0
3056 1 24.94033162641827 12.599394161907698 3.104348131031855 0 0 0
2583 1 1.5587709223079431 15.29926666168223 3.10434268228293 0 0 0
2582 1 4.676311892671204 15.299266863734003 3.104343807245891 0 0 0
4998 2 3.1175408720237803 14.399308940198308 4.663249556282288 0 0 0
2580 1 7.793852892199227 15.299266913238668 3.1043441841704102 0 0 0
4973 2 6.235082291090112 14.3993084783485 4.663249989513599 0 0 0
5045 2 9.35262349212998 14.399308481239082 4.663249990721065 0 0 0
2673 1 10.911393907383802 15.299266863297976 3.104343819050219 0 0 0
5048 2 12.470164930571213 14.399308947513664 4.663249594167005 0 0 0
2669 1 14.028934895881497 15.299266678998555 3.1043427373230092 0 0 0
5060 2 15.587705468945503 14.399309518403923 4.66324954879244 0 0 0
2695 1 17.146476416288262 15.299265875465915 3.1043429634246733 0 0 0
3124 1 20.264018090542162 15.299265338620554 3.104344386020056 0 0 0
5009 2 18.70524659553127 14.39930963431138 4.663250643055495 0 0 0
3022 1 23.38156009430933 15.299264783921267 3.1043473218748288 0 0 0
3310 2 21.822787656876088 14.39930912209235 4.663252990468028 0 0 0
3331 2 24.940330930136597 14.39930794299579 4.663254823825664 0 0 0
4992 2 1.5587704076629243 17.099178363335692 4.663251257750768 0 0 0
2694 1 3.117542393407291 17.999138568742648 3.104348007637128 0 0 0
4996 2 4.676311360882532 17.099177309736934 4.663253606715478 0 0 0
2693 1 6.23508267721278 17.999138333786206 3.1043504842576986 0 0 0
5000 2 7.793852892496346 17.09917679354568 4.6632545050722625 0 0 0
2692 1 9.352623112393504 17.999138331890844 3.104350478792986 0 0 0
2636 1 12.470163438057767 17.999138566121125 3.1043480530205376 0 0 0
5038 2 10.911394428300303 17.09917731294475 4.6632536109452225 0 0 0
2634 1 15.587705058333796 17.999136837513674 3.1043446168844198 0 0 0
5052 2 14.028935431565472 17.09917835985612 4.66325134947348 0 0 0
5062 2 17.14647647696074 17.099178665494556 4.663249996480249 0 0 0
2633 1 18.705246799735903 17.999135991774654 3.104343216815954 0 0 0
3247 2 20.264017358804516 17.0991792899288 4.663250152983895 0 0 0
3182 1 21.82278864370088 17.999135405501388 3.1043439727789353 0 0 0
3313 2 23.381558122717376 17.099179316192703 4.663252706293147 0 0 0
3145 1 24.940330748313876 17.999134933162573 3.1043472461209056 0 0 0
2631 1 1.55877284980285 20.6990082173098 3.1043543745555384 0 0 0
2630 1 4.676314474267873 20.69901170887219 3.104361452165374 0 0 0
5014 2 3.117540879009818 19.79904669007574 4.663260705449736 0 0 0
2627 1 7.793852890857018 20.699010294448264 3.1043660813021754 0 0 0
5018 2 6.235081462975856 19.799044182109125 4.663265664051533 0 0 0
4866 2 9.352624319791921 19.799044182020225 4.663265657715416 0 0 0
2642 1 10.911391330587907 20.69901170674369 3.104361462639856 0 0 0
4872 2 12.470164909713263 19.799046685148006 4.663260757565373 0 0 0
2644 1 14.02893301497192 20.699008211449687 3.1043545056806985 0 0 0
4875 2 15.587707310024209 19.799046999363718 4.663254797873124 0 0 0
2661 1 17.146475119791045 20.699006626713384 3.104346931251986 0 0 0
3184 1 20.264017264250622 20.699005804138846 3.10434360293142 0 0 0
4877 2 18.70524756356918 19.799048439249944 4.6632509623856055 0 0 0
3180 1 23.381559291876542 20.699005386329524 3.1043439718771486 0 0 0
3832 2 21.822788224153978 19.79904896531194 4.663250160922205 0 0 0
3769 2 24.940328858283284 19.79904944821921 4.663252696880522 0 0 0
6780 3 5.246197667636915e-06 19.799054090904384 1.545441603792318 1 0 0
1755 1 8.013127670006535e-07 17.99913681729918 3.104344505135977 1 0 0
4836 2 4.5555927646960354e-07 14.399309495093018 4.663249601783127 1 0 0
7083 3 1.5587818023049151 22.49892833737122 1.545454945151928 0 0 0
7085 3 4.676324216225425 22.498938495834693 1.5454672685682578 0 0 0
7088 3 7.793852892670235 22.498935906941714 1.545472159124132 0 0 0
7090 3 10.911381609400117 22.498938515782264 1.54546729769782 0 0 0
7091 3 14.02892399370108 22.498928292222992 1.545455032424344 0 0 0
7072 3 17.14646913775285 22.49892305707854 1.5454434559662928 0 0 0
6701 3 20.264015040252655 22.498919906574 1.5454377776665453 0 0 0
6704 3 23.381559383937088 22.498918819348603 1.5454369534690497 0 0 0
7059 3 3.117561254560409 25.198800352383678 1.5454769607807808 0 0 0
7061 3 6.235110282029662 25.19882547558 1.5455139492589012 0 0 0
7062 3 9.352595527177359 25.19882549101871 1.545513970993029 0 0 0
7109 3 12.470144517124595 25.198800336544366 1.5454770143398053 0 0 0
7197 3 15.587692031524213 25.19879373208193 1.5454550334609565 0 0 0
7207 3 18.705239968215167 25.19879076261106 1.54544172100235 0 0 0
6712 3 21.82278659782972 25.198789042178245 1.5454367884106859 0 0 0
6552 3 24.940330950571795 25.198788754106758 1.5454374456083337 0 0 0
7208 3 1.5587935988306045 27.898659626826603 1.5454674837081361 0 0 0
7209 3 4.6763575524921235 27.898664379737813 1.5455139215479519 0 0 0
7306 3 7.793852907302306 27.89865855103715 1.5454071831512477 0 0 0
7307 3 10.911348232006466 27.898664374124714 1.5455139724495852 0 0 0
7308 3 14.028911982680063 27.89865950744684 1.545467299803696 0 0 0
7309 3 17.146464995718866 27.89865874378321 1.5454476745796855 0 0 0
6632 3 20.264013117841802 27.898658905058202 1.5454382916535543 0 0 0
6630 3 23.38155900178152 27.898658779253473 1.5454363936223983 0 0 0
6808 3 3.1175557725789558 30.598519938032876 1.5454722243932333 0 0 0
6809 3 6.23510019022777 30.598485785386103 1.5455139185388123 0 0 0
6810 3 9.352605588978042 30.59848577200956 1.5455139418547854 0 0 0
6815 3 12.470149861059584 30.59851982721986 1.5454721212895586 0 0 0
6816 3 15.587694623783264 30.59852529735547 1.5454523553827748 0 0 0
6818 3 18.705241911761505 30.59852721432436 1.5454404521744713 0 0 0
8867 3 21.822787190171518 30.598528570611542 1.5454363683300647 0 0 0
8868 3 24.94033138786915 30.59852878678376 1.545437384655125 0 0 0
6820 3 1.5587785274215704 33.298390117533394 1.5454526993391566 0 0 0
6821 3 4.676322467386017 33.298377633861904 1.545467237423086 0 0 0
6806 3 7.7938528766754205 33.29837496884522 1.5454769346040333 0 0 0
6822 3 10.911383225560625 33.29837760056118 1.5454672310112907 0 0 0
6805 3 14.028926973059507 33.29839003769383 1.5454523287783848 0 0 0
6803 3 17.14647165644675 33.29839546428867 1.5454412666740667 0 0 0
8873 3 20.264016289606257 33.298397610425155 1.5454367704120537 0 0 0
8874 3 23.3815603351793 33.29839890019209 1.5454365992348316 0 0 0
6789 3 3.117546597985609 35.99825816543744 1.545447722371943 0 0 0
6790 3 6.235084929658498 35.99825375377051 1.54545506098358 0 0 0
6791 3 9.352620964722533 35.99825382058794 1.545455228422187 0 0 0
6921 3 12.47015910273509 35.99825832968475 1.5454480056836486 0 0 0
6937 3 15.587702289306227 35.9982644925808 1.5454408993701851 0 0 0
6920 3 18.705245878656932 35.998267529958945 1.545437298402672 0 0 0
8860 3 21.822789530312946 35.99826916069202 1.545436993397754 0 0 0
8859 3 24.940332112135142 35.99826974045342 1.5454395041826892 0 0 0
6918 3 1.5587724329459394 38.69813401071871 1.5454385545017157 0 0 0
6903 3 4.676313649332749 38.69813108140334 1.5454419812321056 0 0 0
6904 3 7.793852997975938 38.69812983953553 1.5454439774229032 0 0 0
6905 3 10.911392315430675 38.698131032178466 1.5454423813338416 0 0 0
6907 3 14.028933267752524 38.69813398152344 1.5454389785525005 0 0 0
6964 3 17.1464762306345 38.698137055291035 1.545437236380012 0 0 0
8755 3 20.26401916329923 38.69813918199804 1.5454377839758926 0 0 0
8754 3 23.3815613577329 38.69814006096791 1.5454403074004315 0 0 0
6968 3 3.117541807379655 41.39800661454568 1.5454372505880172 0 0 0
6969 3 6.235082595767456 41.39800528885494 1.5454381482163397 0 0 0
6970 3 9.352622875535546 41.398004925224726 1.5454376166343167 0 0 0
6971 3 12.470163937493169 41.398005826617975 1.5454359178216999 0 0 0
6973 3 15.58770626649205 41.39800732509981 1.5454353244443293 0 0 0
6975 3 18.70524851198011 41.39800879322967 1.5454366580936896 0 0 0
8749 3 21.822790339557265 41.39800940015033 1.5454389951991663 0 0 0
8748 3 24.940331396712523 41.39800896097511 1.5454407535281334 0 0 0
4879 2 1.5587674638396023 22.49891495644863 4.663268332698955 0 0 0
2450 1 3.117545516928389 23.398879629376488 3.1043739530736945 0 0 0
4854 2 4.6763125042976785 22.49891541302637 4.663280089059676 0 0 0
2446 1 6.235091180811307 23.39888623546017 3.1043868145906863 0 0 0
4837 2 7.793852888788082 22.49891090896693 4.6632880216487935 0 0 0
2442 1 9.35261460687668 23.39888623665791 3.104386822323467 0 0 0
2412 1 12.470160307201432 23.39887962985601 3.1043740266756057 0 0 0
4828 2 10.911393273138914 22.49891540672331 4.663280112591818 0 0 0
2410 1 15.587702692793021 23.39887728466765 3.104357701635272 0 0 0
4831 2 14.028938434475346 22.498915007682427 4.663268409984099 0 0 0
4834 2 17.14647894747376 22.49891739338775 4.66325654745261 0 0 0
2409 1 18.705245480303837 23.39887609141346 3.1043469312393794 0 0 0
3647 2 20.264018352582955 22.498918647868013 4.663250962835948 0 0 0
3171 1 21.822787870799342 23.398875534686407 3.1043432181529713 0 0 0
3652 2 23.381558508612432 22.498918975815496 4.6632501557209265 0 0 0
3037 1 24.940330061519298 23.398875327405772 3.1043443849479697 0 0 0
2405 1 1.5587763396076117 26.098747013620674 3.104374103140396 0 0 0
2403 1 4.676314953071501 26.098747180142016 3.10440650654195 0 0 0
4894 2 3.1175319136008888 25.19878331106164 4.663293093338393 0 0 0
2418 1 7.79385289313701 26.09883949420523 3.104440376599738 0 0 0
4912 2 6.235084042047209 25.198778415604714 4.6633081221810535 0 0 0
4905 2 9.352621730198246 25.19877841074477 4.6633081414501065 0 0 0
2433 1 10.911390848320584 26.098747182996398 3.1044065626341766 0 0 0
5192 2 12.47017394233943 25.198783346024385 4.663293141385046 0 0 0
2432 1 14.028929468517076 26.098747009228113 3.1043740294923725 0 0 0
5195 2 15.587710756326274 25.198787866590116 4.663268411806175 0 0 0
2402 1 17.146473055071954 26.098745951081384 3.1043545089966114 0 0 0
3069 1 20.264016270992403 26.098745447445857 3.104344620285364 0 0 0
5197 2 18.705249473790378 25.198788423331376 4.6632547997351885 0 0 0
3127 1 23.381558778433067 26.098745332933305 3.1043429704118846 0 0 0
3715 2 21.82278861514051 25.198788890933372 4.663249999682514 0 0 0
3574 2 24.940328826757074 25.19878888239256 4.663250651524276 0 0 0
5199 2 1.5587681346363065 27.898660877438296 4.663280294571026 0 0 0
2942 1 3.117554903451123 28.798617472202718 3.1043868394829714 0 0 0
5203 2 4.676303713532774 27.898665205059533 4.663308097232415 0 0 0
2940 1 6.235163869126607 28.79856808983593 3.104440341900269 0 0 0
2939 1 9.352541920660439 28.798568082805318 3.1044403814680592 0 0 0
2937 1 12.470150892034894 28.798617460240322 3.1043868196786786 0 0 0
5243 2 10.911402107515038 27.8986652218738 4.663308144697228 0 0 0
2938 1 15.587699182897003 28.798614472628312 3.1043614617636854 0 0 0
5285 2 14.028937826212674 27.8986609666845 4.663280118262132 0 0 0
5209 2 17.146478542904863 27.898659485593512 4.663260765208903 0 0 0
2941 1 18.705243962245703 28.798614790519707 3.104348053002457 0 0 0
3597 2 20.26401835761138 27.8986587726409 4.663251358125195 0 0 0
3168 1 21.822787327024322 28.798615045634865 3.104342738885318 0 0 0
3865 2 23.381558371906408 27.898658738901073 4.66324956143395 0 0 0
3196 1 24.940329927176265 28.798615205305868 3.104343876859915 0 0 0
2499 1 1.5587745383880145 31.498482670481685 3.104366374128764 0 0 0
2498 1 4.676316618506311 31.49847195163063 3.1043867773153284 0 0 0
5132 2 3.1175343910796345 30.5985323208012 4.663288084461468 0 0 0
2497 1 7.793852888596161 31.498481286473456 3.1044065101295213 0 0 0
5134 2 6.23507252344496 30.598532047943277 4.663308096186707 0 0 0
5138 2 9.352633258382017 30.59853204671329 4.663308119273214 0 0 0
2496 1 10.911389163438436 31.49847191271898 3.1043867724154826 0 0 0
5153 2 12.470171522018115 30.59853237255316 4.663287990972024 0 0 0
2662 1 14.028931173768203 31.49848261507658 3.104366015372828 0 0 0
5143 2 15.587710407748641 30.59853006865162 4.663265623358004 0 0 0
2963 1 17.146473994906632 31.49848396479625 3.104350407616908 0 0 0
3076 1 20.26401667038968 31.49848457224846 3.1043437419660704 0 0 0
5147 2 18.70524875776246 30.59852897919181 4.663253575516499 0 0 0
3070 1 23.381559062842705 31.498485006108478 3.104342851714103 0 0 0
3437 2 21.822788596949437 30.598528299290194 4.663249559533187 0 0 0
3444 2 24.940328967081484 30.598528502903143 4.663250580192285 0 0 0
5149 2 1.5587669265336808 33.298401374682335 4.663265942520129 0 0 0
2901 1 3.1175450344777733 34.19834945251323 3.1043615119054193 0 0 0
5151 2 4.676308403036913 33.29839927346905 4.663280056637703 0 0 0
2900 1 6.235083731127288 34.19834902224431 3.1043739444602516 0 0 0
6317 2 7.793852859446951 33.29840894526837 4.6632930686064205 0 0 0
2897 1 9.352622021561752 34.19834899143519 3.104373990571963 0 0 0
2896 1 12.47016070292942 34.198349384751836 3.104361457898437 0 0 0
6296 2 10.911397400094316 33.29839920277799 4.663280053261351 0 0 0
2923 1 15.587703749411725 34.19835316797914 3.1043504771425923 0 0 0
6338 2 14.028938949757382 33.29840125921235 4.663265594394302 0 0 0
6242 2 17.14647842891001 33.29839926712308 4.663254424642485 0 0 0
2922 1 18.705246110048368 34.19835424090548 3.104344160551876 0 0 0
3495 2 20.26401828598341 33.29839846691063 4.663249892204076 0 0 0
3008 1 21.82278839033122 34.198354837728154 3.104342669148059 0 0 0
3501 2 23.381558602806713 33.298398020980464 4.6632497966557604 0 0 0
3059 1 24.94033050248905 34.198355166703045 3.1043448592467415 0 0 0
2921 1 1.5587723351586273 36.898222265636534 3.1043482781014884 0 0 0
2920 1 4.676312874624852 36.89822155349955 3.1043545488751803 0 0 0
6266 2 3.117539363620663 35.99826945070219 4.66326080217631 0 0 0
2919 1 7.793852875452788 36.89822118872055 3.1043579410106776 0 0 0
6170 2 6.2350804921791365 35.99827269235966 4.663268435124369 0 0 0
6347 2 9.352625076808003 35.99827258828698 4.663268592270606 0 0 0
2917 1 10.9113928770431 36.89822159331097 3.1043549513271276 0 0 0
6292 2 12.470166389508872 35.998269187185116 4.663261069711624 0 0 0
2860 1 14.028933351419274 36.8982223434707 3.104348621935066 0 0 0
6288 2 15.58770714536248 35.998268966716985 4.663253983797998 0 0 0
2857 1 17.14647561950474 36.89822416239412 3.1043444522424863 0 0 0
3179 1 20.26401778568401 36.89822492540339 3.1043434125325753 0 0 0
6308 2 18.70524764849637 35.9982680930221 4.663250380892595 0 0 0
3185 1 23.381559793223936 36.8982254094841 3.10434537930881 0 0 0
3842 2 21.822788129389163 35.998267607127126 4.66325015801166 0 0 0
4533 2 24.940329445623707 35.99826769322543 4.663252667747376 0 0 0
6328 2 1.5587701044188846 38.698138503220044 4.663251593226502 0 0 0
2853 1 3.117541757253835 39.598093540068994 3.104344882697832 0 0 0
6331 2 4.676310689280339 38.69814021849791 4.663255042731658 0 0 0
2868 1 6.235082592505135 39.59809325607981 3.10434740831612 0 0 0
6310 2 7.793852857563325 38.69814095841164 4.6632570354133405 0 0 0
2870 1 9.35262327208001 39.59809337909131 3.104347492024544 0 0 0
2885 1 12.470164090522267 39.59809387128326 3.1043450603056497 0 0 0
6358 2 10.911395047403515 38.698140516615126 4.663255404071006 0 0 0
2969 1 15.587705286418021 39.59809439782771 3.1043431729466056 0 0 0
6335 2 14.028935769634442 38.698138908528165 4.66325197261894 0 0 0
5961 2 17.146476398549247 38.69813875638299 4.663250337390668 0 0 0
2967 1 18.70524720611742 39.59809535700368 3.1043436491186744 0 0 0
4598 2 20.264017325610023 38.69813815966897 4.6632508822490095 0 0 0
3172 1 21.82278912375104 39.598096035132144 3.1043459076453472 0 0 0
4561 2 23.381558836344958 38.69813827186201 4.663253409532684 0 0 0
3038 1 24.940331010263858 39.598096459347225 3.104348517076996 0 0 0
2966 1 1.5587706795191645 42.297964742045394 3.1043435018199794 0 0 0
2999 1 4.676312033483746 42.29796470137185 3.104343622646935 0 0 0
5807 2 3.11754098105421 41.39800832003522 4.663250424516611 0 0 0
2990 1 7.793853120385782 42.29796487541447 3.1043433329763443 0 0 0
5859 2 6.235082623315616 41.398009298226526 4.663251276702871 0 0 0
5865 2 9.352624326821038 41.39800999454514 4.6632507358026585 0 0 0
2987 1 10.911394166987202 42.297965125370155 3.104341937799545 0 0 0
5868 2 12.470165536477593 41.39801000914091 4.663249069032393 0 0 0
2985 1 14.028935372426588 42.297965516850965 3.104341013595389 0 0 0
5874 2 15.587705781628495 41.39800949417173 4.663248422888375 0 0 0
2964 1 17.14647677131848 42.29796610463613 3.104342070885097 0 0 0
3101 1 20.264018455934984 42.29796688164488 3.104344011055612 0 0 0
5877 2 18.705246821988418 41.39800972706371 4.66324975198068 0 0 0
3114 1 23.381560250576708 42.297967491029965 3.104345871170401 0 0 0
4476 2 21.82278845406173 41.39801051266213 4.663252074417229 0 0 0
4498 2 24.940331049497654 41.39801189778226 4.663253798769879 0 0 0
1573 1 1.8114645033703374e-06 34.19835322325845 3.1043509652829266 1 0 0
7329 3 3.1949161472948415e-06 35.998264255163605 1.5454409958209638 1 0 0
7285 3 1.0940031293228776e-05 30.598525380378607 1.5454528962381453 1 0 0
1650 1 3.151067659091925e-06 23.39887730613931 3.104357784454572 1 0 0
5646 2 1.630732706750892e-07 41.398007435240416 4.663250062668797 1 0 0
1515 1 6.496445704752633e-06 28.79861450674667 3.104361956397754 1 0 0
1561 1 4.186037797164031e-07 39.598093914299 3.1043432013454253 1 0 0
6867 3 1.3519068864206908e-05 25.198793905732682 1.5454553016277313 1 0 0
7354 3 1.5587697916269174 44.09787936489581 1.5454380358556803 0 0 0
7353 3 4.676311229474974 44.097878351154485 1.5454367720643898 0 0 0
7360 3 7.7938527571043235 44.09787766843238 1.5454353406003514 0 0 0
7352 3 10.911394447165593 44.09787833504937 1.5454340313381978 0 0 0
7350 3 14.028936522659318 44.097879569088946 1.545434168437507 0 0 0
7349 3 17.146477649214628 44.09788035696874 1.5454355194467164 0 0 0
9001 3 20.26401873393599 44.09788012616184 1.5454362878181112 0 0 0
9002 3 23.38156047452196 44.097879396983195 1.5454365283252531 0 0 0
7348 3 3.1175402941679935 46.7977501219869 1.545438586238852 0 0 0
7347 3 6.235082537784818 46.7977504062774 1.5454362282151 0 0 0
7346 3 9.35262462331101 46.7977515479669 1.5454351215336346 0 0 0
7345 3 12.470166741811731 46.79775278563544 1.5454359400593538 0 0 0
7108 3 15.58770689775695 46.797753145769896 1.5454372604457454 0 0 0
7107 3 18.705247536677945 46.79775280381419 1.5454362915808728 0 0 0
9008 3 21.822789133646612 46.797752414455964 1.5454342050744623 0 0 0
9015 3 24.94033150790836 46.79775265659632 1.5454330922124977 0 0 0
7106 3 1.558769623702322 49.497619858661444 1.545439684223385 0 0 0
7099 3 4.676312437544365 49.49762082014586 1.5454376081407237 0 0 0
7153 3 7.7938550350229825 49.497622629616544 1.5454373985544108 0 0 0
7152 3 10.911397949875806 49.49762524360729 1.545439305555278 0 0 0
6749 3 14.02893769439635 49.49762615793082 1.545441684376121 0 0 0
7054 3 17.146477146500217 49.497626515508244 1.5454405500530113 0 0 0
9013 3 20.264018464445 49.49762711420411 1.545437713644887 0 0 0
9014 3 23.381559626011878 49.49762776451069 1.5454354025170274 0 0 0
6747 3 3.1175420853152094 52.19749077343543 1.5454373088098676 0 0 0
6555 3 6.235085530477216 52.197492457805026 1.5454381710045033 0 0 0
6408 3 9.352630116764164 52.19749598420354 1.5454424250002408 0 0 0
6404 3 12.470171588229274 52.19750055301765 1.5454485699017395 0 0 0
6409 3 15.587709649246165 52.197502016201156 1.5454513022378362 0 0 0
6412 3 18.705247093568108 52.19750341951144 1.5454494426891818 0 0 0
8896 3 21.822787039251622 52.197503778577484 1.5454457822758392 0 0 0
8894 3 24.940331211163574 52.197502335280866 1.5454424807895744 0 0 0
6416 3 1.5587709333849091 54.897360935212525 1.5454369562172738 0 0 0
6433 3 4.676315268401488 54.89736198786478 1.5454377296736612 0 0 0
6419 3 7.793861415924783 54.8973652442837 1.5454435820536032 0 0 0
6402 3 10.911406486172995 54.897370324699885 1.545455513885137 0 0 0
6394 3 14.028948581038286 54.897380532683215 1.5454663448541657 0 0 0
6482 3 17.146479057150138 54.89737886146456 1.5454690775861069 0 0 0
8889 3 20.264010453925035 54.89738234233155 1.545465297966122 0 0 0
8888 3 23.38155691738211 54.89737522701402 1.5454571662551462 0 0 0