LAMMPS data file via write_data, version 21 Nov 2023, timestep = 26, units = metal

9600 atoms
3 atom types

0 311.7542598519951 xlo xhi
0 86.39587480676045 ylo yhi
0 50 zlo zhi
0 0 0 xy xz yz

Masses

1 95.94
2 32.065
3 32.065

Atoms # atomic

5 3 1.5587704715371073 0.8999570568239358 1.5454401246736225 0 0 0
11 3 4.676313070057093 0.8999570568239234 1.5454401246736167 0 0 0
17 3 7.793855668577042 0.8999570568239234 1.5454401246736182 0 0 0
23 3 10.911398267096988 0.8999570568239229 1.5454401246736187 0 0 0
29 3 14.028940865616935 0.8999570568239234 1.5454401246736191 0 0 0
35 3 17.146483464136878 0.8999570568239247 1.5454401246736198 0 0 0
41 3 20.264026062656832 0.8999570568239234 1.5454401246736182 0 0 0
47 3 23.381568661176786 0.8999570568239234 1.545440124673617 0 0 0
12 3 3.1175417707971116 3.5998281445351874 1.5454401246736176 0 0 0
18 3 6.235084369317069 3.5998281445351856 1.5454401246736187 0 0 0
24 3 9.352626967837013 3.5998281445351856 1.5454401246736191 0 0 0
30 3 12.470169566356958 3.5998281445351856 1.5454401246736182 0 0 0
36 3 15.58771216487691 3.599828144535186 1.5454401246736196 0 0 0
42 3 18.705254763396862 3.5998281445351843 1.5454401246736196 0 0 0
48 3 21.82279736191681 3.599828144535186 1.5454401246736187 0 0 0
54 3 24.940339960436766 3.5998281445351874 1.5454401246736205 0 0 0
605 3 1.5587704715371091 6.2996992322464545 1.545440124673624 0 0 0
611 3 4.676313070057095 6.299699232246447 1.5454401246736167 0 0 0
617 3 7.793855668577042 6.299699232246447 1.5454401246736178 0 0 0
623 3 10.911398267096988 6.299699232246447 1.545440124673617 0 0 0
629 3 14.028940865616935 6.299699232246449 1.5454401246736178 0 0 0
635 3 17.146483464136878 6.299699232246449 1.5454401246736191 0 0 0
641 3 20.264026062656836 6.299699232246449 1.5454401246736182 0 0 0
647 3 23.381568661176786 6.299699232246449 1.5454401246736191 0 0 0
612 3 3.1175417707971165 8.999570319957712 1.5454401246736138 0 0 0
618 3 6.23508436931707 8.999570319957716 1.5454401246736154 0 0 0
624 3 9.352626967837017 8.999570319957716 1.5454401246736174 0 0 0
630 3 12.470169566356958 8.999570319957716 1.5454401246736174 0 0 0
636 3 15.58771216487691 8.999570319957716 1.5454401246736182 0 0 0
642 3 18.70525476339686 8.999570319957716 1.5454401246736174 0 0 0
648 3 21.82279736191681 8.999570319957716 1.5454401246736187 0 0 0
654 3 24.940339960436766 8.999570319957716 1.5454401246736191 0 0 0
1205 3 1.5587704715371087 11.699441407668989 1.5454401246736211 0 0 0
1211 3 4.676313070057095 11.69944140766898 1.5454401246736136 0 0 0
1217 3 7.793855668577046 11.699441407668983 1.5454401246736167 0 0 0
1223 3 10.911398267096988 11.699441407668983 1.5454401246736176 0 0 0
1229 3 14.028940865616935 11.699441407668983 1.5454401246736171 0 0 0
1235 3 17.146483464136878 11.69944140766898 1.5454401246736187 0 0 0
1241 3 20.264026062656832 11.699441407668983 1.5454401246736171 0 0 0
1247 3 23.381568661176786 11.699441407668983 1.5454401246736171 0 0 0
1212 3 3.117541770797116 14.399312495380245 1.5454401246736122 0 0 0
1218 3 6.23508436931707 14.399312495380238 1.5454401246736145 0 0 0
1224 3 9.352626967837013 14.39931249538024 1.5454401246736167 0 0 0
1230 3 12.470169566356963 14.399312495380245 1.5454401246736171 0 0 0
1236 3 15.58771216487691 14.399312495380245 1.5454401246736182 0 0 0
1242 3 18.70525476339686 14.39931249538024 1.5454401246736182 0 0 0
1248 3 21.82279736191681 14.399312495380245 1.5454401246736187 0 0 0
1254 3 24.940339960436766 14.399312495380245 1.5454401246736191 0 0 0
1805 3 1.5587704715371062 17.099183583091516 1.5454401246736211 0 0 0
1811 3 4.676313070057093 17.099183583091495 1.5454401246736142 0 0 0
1817 3 7.7938556685770415 17.099183583091495 1.5454401246736156 0 0 0
1823 3 10.911398267096988 17.099183583091495 1.545440124673617 0 0 0
1829 3 14.028940865616935 17.099183583091495 1.5454401246736174 0 0 0
1835 3 17.146483464136878 17.099183583091502 1.5454401246736187 0 0 0
1841 3 20.264026062656832 17.099183583091495 1.5454401246736182 0 0 0
1847 3 23.381568661176775 17.099183583091495 1.5454401246736178 0 0 0
1812 3 3.117541770797109 19.799054670802768 1.5454401246736154 0 0 0
1818 3 6.235084369317069 19.79905467080276 1.545440124673616 0 0 0
1824 3 9.352626967837013 19.79905467080276 1.5454401246736165 0 0 0
1830 3 12.470169566356963 19.79905467080276 1.5454401246736167 0 0 0
1836 3 15.58771216487691 19.799054670802768 1.5454401246736182 0 0 0
1842 3 18.705254763396862 19.799054670802768 1.545440124673615 0 0 0
1848 3 21.82279736191681 19.79905467080276 1.5454401246736158 0 0 0
1854 3 24.940339960436766 19.799054670802768 1.5454401246736167 0 0 0
3 2 1.5587704715371054 0.8999570568239353 4.663253208659702 0 0 0
9 2 4.67631307005709 0.8999570568239225 4.66325320865971 0 0 0
8 1 3.117541770797109 1.7999140860727731 3.104346666666664 0 0 0
15 2 7.793855668577042 0.899957056823922 4.663253208659712 0 0 0
14 1 6.235084369317069 1.7999140860727731 3.1043466666666726 0 0 0
20 1 9.352626967837017 1.7999140860727731 3.1043466666666726 0 0 0
21 2 10.911398267096988 0.8999570568239225 4.663253208659713 0 0 0
26 1 12.470169566356963 1.7999140860727731 3.104346666666673 0 0 0
27 2 14.028940865616935 0.8999570568239225 4.663253208659713 0 0 0
32 1 15.58771216487691 1.7999140860727734 3.104346666666672 0 0 0
33 2 17.146483464136878 0.8999570568239225 4.663253208659713 0 0 0
38 1 18.70525476339686 1.7999140860727725 3.1043466666666735 0 0 0
39 2 20.26402606265684 0.8999570568239216 4.663253208659712 0 0 0
44 1 21.82279736191681 1.7999140860727731 3.1043466666666744 0 0 0
45 2 23.381568661176786 0.8999570568239225 4.663253208659712 0 0 0
50 1 24.940339960436766 1.7999140860727723 3.1043466666666744 0 0 0
1 1 1.5587704715371011 4.4997851737840255 3.104346666666659 0 0 0
7 1 4.676313070057092 4.499785173784037 3.104346666666667 0 0 0
10 2 3.1175417707971085 3.599828144535188 4.663253208659711 0 0 0
13 1 7.7938556685770415 4.499785173784039 3.1043466666666735 0 0 0
16 2 6.235084369317069 3.5998281445351856 4.663253208659712 0 0 0
22 2 9.352626967837013 3.5998281445351856 4.663253208659713 0 0 0
19 1 10.911398267096988 4.499785173784037 3.1043466666666744 0 0 0
28 2 12.470169566356963 3.5998281445351856 4.663253208659712 0 0 0
25 1 14.028940865616935 4.499785173784037 3.104346666666675 0 0 0
34 2 15.58771216487691 3.599828144535188 4.663253208659713 0 0 0
31 1 17.146483464136885 4.499785173784037 3.1043466666666744 0 0 0
40 2 18.705254763396862 3.5998281445351843 4.663253208659714 0 0 0
37 1 20.264026062656832 4.499785173784039 3.1043466666666735 0 0 0
46 2 21.82279736191681 3.5998281445351856 4.663253208659713 0 0 0
43 1 23.381568661176786 4.499785173784035 3.104346666666673 0 0 0
52 2 24.940339960436766 3.599828144535186 4.663253208659713 0 0 0
603 2 1.5587704715371051 6.2996992322464545 4.6632532086596985 0 0 0
609 2 4.676313070057092 6.299699232246451 4.66325320865971 0 0 0
608 1 3.117541770797111 7.199656261495303 3.1043466666666637 0 0 0
615 2 7.793855668577042 6.299699232246451 4.663253208659711 0 0 0
614 1 6.235084369317069 7.1996562614953055 3.104346666666672 0 0 0
620 1 9.352626967837017 7.1996562614953055 3.1043466666666744 0 0 0
621 2 10.911398267096988 6.299699232246447 4.663253208659712 0 0 0
626 1 12.470169566356963 7.199656261495303 3.104346666666676 0 0 0
627 2 14.028940865616935 6.299699232246449 4.663253208659711 0 0 0
632 1 15.58771216487691 7.1996562614953055 3.1043466666666766 0 0 0
633 2 17.14648346413689 6.299699232246451 4.663253208659711 0 0 0
638 1 18.70525476339686 7.199656261495306 3.1043466666666744 0 0 0
639 2 20.264026062656832 6.299699232246451 4.663253208659713 0 0 0
644 1 21.82279736191681 7.199656261495303 3.104346666666672 0 0 0
645 2 23.381568661176786 6.299699232246451 4.663253208659714 0 0 0
650 1 24.940339960436766 7.199656261495303 3.1043466666666713 0 0 0
601 1 1.558770471537125 9.899527349206558 3.1043466666666615 0 0 0
607 1 4.676313070057092 9.899527349206565 3.104346666666671 0 0 0
610 2 3.1175417707971134 8.999570319957716 4.663253208659705 0 0 0
613 1 7.7938556685770415 9.899527349206569 3.1043466666666735 0 0 0
616 2 6.235084369317069 8.999570319957716 4.663253208659708 0 0 0
622 2 9.352626967837013 8.999570319957716 4.66325320865971 0 0 0
619 1 10.911398267096986 9.899527349206569 3.1043466666666744 0 0 0
628 2 12.470169566356963 8.999570319957716 4.66325320865971 0 0 0
625 1 14.028940865616935 9.899527349206569 3.1043466666666766 0 0 0
634 2 15.58771216487691 8.999570319957716 4.663253208659712 0 0 0
631 1 17.146483464136878 9.899527349206565 3.1043466666666752 0 0 0
640 2 18.705254763396862 8.999570319957716 4.66325320865971 0 0 0
637 1 20.264026062656832 9.899527349206569 3.1043466666666735 0 0 0
646 2 21.82279736191681 8.999570319957716 4.663253208659712 0 0 0
643 1 23.381568661176786 9.899527349206569 3.1043466666666735 0 0 0
652 2 24.940339960436766 8.999570319957716 4.66325320865971 0 0 0
1203 2 1.5587704715371062 11.699441407668989 4.663253208659693 0 0 0
1209 2 4.676313070057092 11.699441407668983 4.6632532086597065 0 0 0
1208 1 3.11754177079711 12.59939843691783 3.104346666666663 0 0 0
1215 2 7.793855668577042 11.699441407668983 4.663253208659709 0 0 0
1214 1 6.235084369317069 12.59939843691783 3.104346666666671 0 0 0
1220 1 9.352626967837017 12.599398436917832 3.1043466666666744 0 0 0
1221 2 10.911398267096988 11.699441407668983 4.66325320865971 0 0 0
1226 1 12.470169566356963 12.599398436917836 3.1043466666666757 0 0 0
1227 2 14.028940865616935 11.699441407668983 4.663253208659711 0 0 0
1232 1 15.58771216487691 12.599398436917836 3.1043466666666752 0 0 0
1233 2 17.146483464136878 11.699441407668983 4.663253208659711 0 0 0
1238 1 18.70525476339686 12.599398436917832 3.1043466666666766 0 0 0
1239 2 20.264026062656832 11.69944140766898 4.663253208659711 0 0 0
1244 1 21.82279736191681 12.599398436917832 3.104346666666676 0 0 0
1245 2 23.381568661176786 11.699441407668983 4.66325320865971 0 0 0
1250 1 24.940339960436766 12.599398436917832 3.1043466666666735 0 0 0
1201 1 1.5587704715371233 15.29926952462908 3.104346666666662 0 0 0
1207 1 4.676313070057092 15.299269524629088 3.1043466666666686 0 0 0
1210 2 3.1175417707971116 14.39931249538024 4.663253208659705 0 0 0
1213 1 7.7938556685770415 15.299269524629088 3.1043466666666726 0 0 0
1216 2 6.235084369317069 14.39931249538024 4.663253208659709 0 0 0
1222 2 9.352626967837013 14.39931249538024 4.66325320865971 0 0 0
1219 1 10.911398267096986 15.299269524629088 3.104346666666675 0 0 0
1228 2 12.470169566356963 14.399312495380245 4.663253208659711 0 0 0
1225 1 14.028940865616935 15.299269524629095 3.1043466666666757 0 0 0
1234 2 15.58771216487691 14.399312495380245 4.663253208659713 0 0 0
1231 1 17.14648346413688 15.299269524629095 3.1043466666666726 0 0 0
1240 2 18.705254763396862 14.399312495380245 4.663253208659713 0 0 0
1237 1 20.264026062656832 15.299269524629095 3.1043466666666757 0 0 0
1246 2 21.82279736191681 14.399312495380245 4.663253208659711 0 0 0
1243 1 23.381568661176786 15.299269524629088 3.104346666666676 0 0 0
1252 2 24.940339960436766 14.399312495380245 4.663253208659711 0 0 0
1803 2 1.558770471537106 17.09918358309151 4.663253208659696 0 0 0
1809 2 4.6763130700570885 17.099183583091495 4.663253208659707 0 0 0
1808 1 3.1175417707971094 17.99914061234034 3.1043466666666615 0 0 0
1815 2 7.7938556685770415 17.099183583091495 4.663253208659711 0 0 0
1814 1 6.235084369317069 17.999140612340348 3.104346666666669 0 0 0
1820 1 9.352626967837017 17.999140612340348 3.1043466666666744 0 0 0
1821 2 10.911398267096988 17.099183583091495 4.663253208659711 0 0 0
1826 1 12.470169566356963 17.999140612340348 3.1043466666666735 0 0 0
1827 2 14.028940865616935 17.099183583091502 4.663253208659712 0 0 0
1832 1 15.58771216487691 17.999140612340355 3.1043466666666704 0 0 0
1833 2 17.146483464136878 17.099183583091502 4.663253208659712 0 0 0
1838 1 18.70525476339686 17.99914061234034 3.104346666666673 0 0 0
1839 2 20.264026062656832 17.099183583091502 4.663253208659711 0 0 0
1845 2 23.381568661176786 17.099183583091506 4.66325320865971 0 0 0
1844 1 21.82279736191681 17.999140612340348 3.1043466666666744 0 0 0
1850 1 24.940339960436766 17.99914061234034 3.104346666666672 0 0 0
1801 1 1.5587704715370998 20.699011700051603 3.1043466666666566 0 0 0
1810 2 3.117541770797109 19.799054670802768 4.66325320865971 0 0 0
1807 1 4.676313070057089 20.699011700051614 3.104346666666663 0 0 0
1816 2 6.235084369317064 19.79905467080276 4.66325320865971 0 0 0
1813 1 7.7938556685770415 20.699011700051614 3.104346666666672 0 0 0
1822 2 9.352626967837013 19.79905467080276 4.66325320865971 0 0 0
1828 2 12.470169566356963 19.79905467080276 4.663253208659711 0 0 0
1819 1 10.911398267096988 20.699011700051614 3.1043466666666744 0 0 0
1834 2 15.58771216487691 19.799054670802768 4.663253208659711 0 0 0
1825 1 14.028940865616935 20.699011700051624 3.1043466666666735 0 0 0
1831 1 17.146483464136885 20.699011700051624 3.104346666666673 0 0 0
1840 2 18.705254763396862 19.799054670802768 4.663253208659713 0 0 0
1837 1 20.264026062656832 20.699011700051614 3.1043466666666735 0 0 0
1846 2 21.82279736191681 19.799054670802768 4.663253208659712 0 0 0
1843 1 23.381568661176786 20.699011700051614 3.1043466666666744 0 0 0
1852 2 24.940339960436766 19.799054670802768 4.663253208659709 0 0 0
2405 3 1.5587704715371062 22.498925758514034 1.5454401246736253 0 0 0
2411 3 4.676313070057093 22.49892575851402 1.5454401246736167 0 0 0
2417 3 7.793855668577042 22.49892575851402 1.545440124673617 0 0 0
2423 3 10.911398267096988 22.49892575851402 1.5454401246736156 0 0 0
2429 3 14.028940865616935 22.49892575851403 1.5454401246736174 0 0 0
2435 3 17.146483464136878 22.49892575851403 1.5454401246736182 0 0 0
2441 3 20.264026062656832 22.49892575851402 1.5454401246736165 0 0 0
2447 3 23.381568661176786 22.49892575851402 1.5454401246736145 0 0 0
2412 3 3.1175417707971085 25.198796846225278 1.545440124673617 0 0 0
2418 3 6.235084369317069 25.198796846225278 1.5454401246736147 0 0 0
2424 3 9.352626967837013 25.19879684622529 1.5454401246736156 0 0 0
2430 3 12.470169566356958 25.19879684622529 1.5454401246736167 0 0 0
2436 3 15.58771216487691 25.19879684622529 1.545440124673617 0 0 0
2442 3 18.705254763396862 25.19879684622529 1.5454401246736191 0 0 0
2448 3 21.82279736191681 25.19879684622529 1.5454401246736182 0 0 0
2454 3 24.940339960436766 25.19879684622529 1.5454401246736182 0 0 0
3005 3 1.558770471537106 27.898667933936558 1.5454401246736251 0 0 0
3011 3 4.676313070057093 27.898667933936558 1.5454401246736174 0 0 0
3017 3 7.793855668577042 27.898667933936558 1.5454401246736178 0 0 0
3023 3 10.911398267096988 27.898667933936558 1.5454401246736178 0 0 0
3029 3 14.028940865616935 27.898667933936558 1.5454401246736182 0 0 0
3035 3 17.146483464136878 27.898667933936558 1.5454401246736191 0 0 0
3041 3 20.264026062656832 27.898667933936558 1.5454401246736191 0 0 0
3047 3 23.381568661176775 27.898667933936558 1.5454401246736191 0 0 0
3012 3 3.117541770797109 30.598539021647817 1.5454401246736167 0 0 0
3018 3 6.235084369317069 30.598539021647817 1.5454401246736171 0 0 0
3024 3 9.352626967837013 30.598539021647817 1.5454401246736185 0 0 0
3030 3 12.470169566356958 30.598539021647817 1.5454401246736182 0 0 0
3036 3 15.58771216487691 30.598539021647817 1.5454401246736182 0 0 0
3042 3 18.705254763396862 30.598539021647817 1.5454401246736187 0 0 0
3048 3 21.82279736191681 30.598539021647817 1.5454401246736191 0 0 0
3054 3 24.940339960436766 30.598539021647817 1.5454401246736191 0 0 0
3605 3 1.5587704715371051 33.29841010935908 1.5454401246736238 0 0 0
3611 3 4.67631307005709 33.29841010935908 1.5454401246736154 0 0 0
3617 3 7.793855668577042 33.29841010935908 1.5454401246736171 0 0 0
3623 3 10.911398267096988 33.29841010935908 1.5454401246736171 0 0 0
3629 3 14.028940865616937 33.29841010935908 1.5454401246736165 0 0 0
3635 3 17.14648346413689 33.29841010935908 1.5454401246736178 0 0 0
3641 3 20.264026062656832 33.29841010935908 1.5454401246736191 0 0 0
3647 3 23.381568661176786 33.29841010935908 1.5454401246736147 0 0 0
3612 3 3.1175417707971067 35.998281197070334 1.5454401246736171 0 0 0
3618 3 6.235084369317064 35.998281197070334 1.5454401246736178 0 0 0
3624 3 9.352626967837013 35.998281197070334 1.5454401246736176 0 0 0
3630 3 12.470169566356963 35.998281197070334 1.5454401246736167 0 0 0
3636 3 15.58771216487691 35.998281197070334 1.5454401246736182 0 0 0
3642 3 18.705254763396862 35.998281197070334 1.5454401246736182 0 0 0
3648 3 21.82279736191681 35.998281197070334 1.5454401246736167 0 0 0
3654 3 24.940339960436766 35.998281197070334 1.5454401246736174 0 0 0
4205 3 1.5587704715371036 38.698152284781614 1.5454401246736293 0 0 0
4211 3 4.67631307005709 38.698152284781614 1.5454401246736191 0 0 0
4217 3 7.7938556685770415 38.698152284781614 1.5454401246736191 0 0 0
4223 3 10.911398267096988 38.698152284781614 1.5454401246736187 0 0 0
4229 3 14.028940865616942 38.698152284781614 1.5454401246736196 0 0 0
4235 3 17.14648346413689 38.698152284781614 1.5454401246736191 0 0 0
4241 3 20.26402606265684 38.698152284781614 1.5454401246736191 0 0 0
4247 3 23.381568661176786 38.698152284781614 1.5454401246736171 0 0 0
4212 3 3.117541770797109 41.39802337249286 1.5454401246736145 0 0 0
4218 3 6.235084369317069 41.39802337249286 1.5454401246736154 0 0 0
4224 3 9.352626967837013 41.39802337249287 1.5454401246736165 0 0 0
4230 3 12.470169566356958 41.39802337249286 1.5454401246736165 0 0 0
4236 3 15.58771216487691 41.39802337249286 1.5454401246736156 0 0 0
4242 3 18.705254763396862 41.39802337249286 1.5454401246736176 0 0 0
4248 3 21.82279736191681 41.39802337249286 1.5454401246736151 0 0 0
4254 3 24.940339960436766 41.39802337249286 1.5454401246736178 0 0 0
2403 2 1.5587704715371078 22.498925758514034 4.663253208659706 0 0 0
2409 2 4.676313070057092 22.49892575851402 4.66325320865971 0 0 0
2408 1 3.1175417707971085 23.398882787762876 3.1043466666666584 0 0 0
2415 2 7.793855668577042 22.49892575851402 4.66325320865971 0 0 0
2414 1 6.235084369317069 23.398882787762876 3.1043466666666713 0 0 0
2420 1 9.352626967837017 23.398882787762876 3.1043466666666744 0 0 0
2421 2 10.911398267096988 22.49892575851402 4.66325320865971 0 0 0
2426 1 12.470169566356958 23.398882787762876 3.1043466666666744 0 0 0
2427 2 14.028940865616935 22.49892575851403 4.66325320865971 0 0 0
2432 1 15.58771216487691 23.398882787762876 3.1043466666666735 0 0 0
2433 2 17.146483464136878 22.49892575851403 4.663253208659713 0 0 0
2438 1 18.705254763396862 23.398882787762883 3.104346666666675 0 0 0
2439 2 20.26402606265684 22.49892575851402 4.663253208659713 0 0 0
2445 2 23.381568661176786 22.49892575851402 4.663253208659711 0 0 0
2444 1 21.82279736191681 23.398882787762876 3.1043466666666744 0 0 0
2450 1 24.940339960436766 23.398882787762876 3.1043466666666735 0 0 0
2401 1 1.558770471537099 26.098753875474124 3.1043466666666584 0 0 0
2410 2 3.1175417707971085 25.198796846225278 4.663253208659711 0 0 0
2407 1 4.67631307005709 26.098753875474134 3.104346666666668 0 0 0
2416 2 6.235084369317069 25.198796846225278 4.66325320865971 0 0 0
2413 1 7.7938556685770415 26.098753875474134 3.1043466666666757 0 0 0
2422 2 9.352626967837013 25.198796846225278 4.663253208659711 0 0 0
2428 2 12.470169566356958 25.19879684622529 4.66325320865971 0 0 0
2419 1 10.911398267096986 26.098753875474134 3.104346666666675 0 0 0
2434 2 15.58771216487691 25.19879684622529 4.663253208659711 0 0 0
2425 1 14.028940865616935 26.098753875474138 3.1043466666666735 0 0 0
2431 1 17.146483464136878 26.098753875474134 3.1043466666666735 0 0 0
2440 2 18.705254763396862 25.19879684622529 4.663253208659711 0 0 0
2437 1 20.264026062656832 26.098753875474134 3.104346666666673 0 0 0
2446 2 21.82279736191681 25.19879684622529 4.66325320865971 0 0 0
2443 1 23.381568661176786 26.098753875474134 3.1043466666666744 0 0 0
2452 2 24.940339960436766 25.19879684622529 4.663253208659709 0 0 0
3003 2 1.5587704715371085 27.898667933936572 4.663253208659705 0 0 0
3009 2 4.676313070057092 27.898667933936558 4.663253208659708 0 0 0
3008 1 3.117541770797109 28.798624963185407 3.1043466666666615 0 0 0
3015 2 7.793855668577042 27.898667933936558 4.663253208659709 0 0 0
3014 1 6.235084369317069 28.798624963185407 3.104346666666673 0 0 0
3020 1 9.352626967837017 28.798624963185407 3.1043466666666744 0 0 0
3021 2 10.911398267096988 27.898667933936558 4.66325320865971 0 0 0
3026 1 12.470169566356963 28.798624963185407 3.104346666666672 0 0 0
3027 2 14.028940865616935 27.898667933936558 4.663253208659709 0 0 0
3032 1 15.58771216487691 28.798624963185407 3.104346666666672 0 0 0
3033 2 17.146483464136878 27.898667933936558 4.663253208659709 0 0 0
3038 1 18.70525476339686 28.798624963185407 3.1043466666666744 0 0 0
3039 2 20.264026062656832 27.898667933936558 4.663253208659712 0 0 0
3045 2 23.381568661176786 27.898667933936558 4.66325320865971 0 0 0
3044 1 21.82279736191681 28.798624963185407 3.104346666666672 0 0 0
3050 1 24.940339960436766 28.798624963185397 3.1043466666666717 0 0 0
3001 1 1.558770471537096 31.498496050896655 3.1043466666666557 0 0 0
3007 1 4.676313070057088 31.498496050896655 3.104346666666667 0 0 0
3010 2 3.117541770797107 30.598539021647817 4.663253208659709 0 0 0
3013 1 7.7938556685770415 31.498496050896666 3.1043466666666752 0 0 0
3016 2 6.235084369317064 30.598539021647817 4.663253208659708 0 0 0
3022 2 9.352626967837013 30.598539021647817 4.66325320865971 0 0 0
3019 1 10.911398267096988 31.498496050896666 3.104346666666672 0 0 0
3028 2 12.470169566356963 30.598539021647817 4.663253208659711 0 0 0
3025 1 14.028940865616935 31.49849605089667 3.104346666666672 0 0 0
3034 2 15.58771216487691 30.598539021647817 4.663253208659709 0 0 0
3031 1 17.146483464136885 31.498496050896655 3.1043466666666713 0 0 0
3040 2 18.705254763396862 30.598539021647817 4.663253208659712 0 0 0
3037 1 20.264026062656836 31.49849605089667 3.1043466666666695 0 0 0
3046 2 21.82279736191681 30.598539021647817 4.663253208659712 0 0 0
3043 1 23.381568661176786 31.498496050896655 3.1043466666666726 0 0 0
3052 2 24.940339960436766 30.598539021647817 4.663253208659709 0 0 0
3603 2 1.558770471537105 33.29841010935908 4.663253208659701 0 0 0
3609 2 4.676313070057088 33.29841010935908 4.663253208659709 0 0 0
3608 1 3.1175417707971067 34.198367138607935 3.1043466666666637 0 0 0
3615 2 7.7938556685770415 33.29841010935908 4.663253208659711 0 0 0
3614 1 6.235084369317066 34.198367138607935 3.104346666666673 0 0 0
3620 1 9.352626967837017 34.198367138607935 3.1043466666666735 0 0 0
3621 2 10.911398267096988 33.29841010935908 4.663253208659711 0 0 0
3626 1 12.470169566356963 34.198367138607935 3.1043466666666744 0 0 0
3627 2 14.028940865616937 33.29841010935908 4.66325320865971 0 0 0
3632 1 15.587712164876914 34.198367138607935 3.1043466666666726 0 0 0
3633 2 17.14648346413689 33.29841010935908 4.663253208659712 0 0 0
3638 1 18.705254763396862 34.198367138607935 3.1043466666666717 0 0 0
3639 2 20.26402606265684 33.29841010935908 4.663253208659712 0 0 0
3644 1 21.82279736191681 34.198367138607935 3.1043466666666726 0 0 0
3645 2 23.381568661176786 33.29841010935908 4.66325320865971 0 0 0
3650 1 24.940339960436766 34.198367138607935 3.1043466666666726 0 0 0
3601 1 1.5587704715371087 36.898238226319194 3.1043466666666624 0 0 0
3607 1 4.676313070057083 36.8982382263192 3.1043466666666713 0 0 0
3610 2 3.117541770797106 35.998281197070334 4.663253208659709 0 0 0
3613 1 7.793855668577039 36.8982382263192 3.1043466666666744 0 0 0
3616 2 6.235084369317064 35.998281197070334 4.66325320865971 0 0 0
3622 2 9.352626967837013 35.998281197070334 4.66325320865971 0 0 0
3619 1 10.911398267096988 36.8982382263192 3.1043466666666744 0 0 0
3628 2 12.470169566356963 35.998281197070334 4.663253208659709 0 0 0
3625 1 14.028940865616937 36.8982382263192 3.1043466666666735 0 0 0
3634 2 15.58771216487691 35.998281197070334 4.663253208659709 0 0 0
3631 1 17.146483464136885 36.8982382263192 3.1043466666666744 0 0 0
3640 2 18.705254763396862 35.998281197070334 4.663253208659713 0 0 0
3637 1 20.264026062656836 36.8982382263192 3.1043466666666744 0 0 0
3646 2 21.82279736191681 35.998281197070334 4.663253208659709 0 0 0
3643 1 23.381568661176786 36.8982382263192 3.1043466666666766 0 0 0
3652 2 24.940339960436766 35.998281197070334 4.663253208659707 0 0 0
4203 2 1.558770471537104 38.698152284781614 4.663253208659699 0 0 0
4209 2 4.676313070057088 38.698152284781614 4.663253208659709 0 0 0
4208 1 3.117541770797104 39.59810931403046 3.1043466666666633 0 0 0
4215 2 7.793855668577042 38.698152284781614 4.663253208659711 0 0 0
4214 1 6.235084369317066 39.59810931403046 3.1043466666666744 0 0 0
4220 1 9.352626967837017 39.59810931403046 3.104346666666675 0 0 0
4221 2 10.911398267096988 38.698152284781614 4.663253208659711 0 0 0
4226 1 12.470169566356965 39.59810931403046 3.1043466666666735 0 0 0
4227 2 14.028940865616942 38.698152284781614 4.663253208659711 0 0 0
4232 1 15.587712164876919 39.59810931403046 3.104346666666673 0 0 0
4233 2 17.14648346413689 38.698152284781614 4.663253208659712 0 0 0
4238 1 18.705254763396862 39.59810931403045 3.1043466666666726 0 0 0
4239 2 20.26402606265684 38.698152284781614 4.66325320865971 0 0 0
4244 1 21.822797361916816 39.59810931403046 3.1043466666666752 0 0 0
4245 2 23.381568661176786 38.698152284781614 4.663253208659711 0 0 0
4250 1 24.940339960436766 39.59810931403045 3.104346666666675 0 0 0
4201 1 1.5587704715371002 42.29798040174171 3.1043466666666575 0 0 0
4207 1 4.6763130700570885 42.29798040174171 3.1043466666666686 0 0 0
4210 2 3.117541770797107 41.39802337249286 4.663253208659712 0 0 0
4213 1 7.7938556685770415 42.297980401741725 3.1043466666666744 0 0 0
4216 2 6.2350843693170654 41.39802337249287 4.663253208659711 0 0 0
4222 2 9.352626967837013 41.39802337249287 4.663253208659711 0 0 0
4219 1 10.911398267096986 42.297980401741725 3.1043466666666726 0 0 0
4228 2 12.470169566356958 41.39802337249287 4.663253208659713 0 0 0
4225 1 14.028940865616935 42.29798040174171 3.1043466666666717 0 0 0
4234 2 15.58771216487691 41.39802337249286 4.663253208659714 0 0 0
4231 1 17.146483464136878 42.297980401741725 3.1043466666666726 0 0 0
4240 2 18.705254763396862 41.39802337249286 4.663253208659713 0 0 0
4237 1 20.264026062656832 42.29798040174171 3.104346666666673 0 0 0
4246 2 21.82279736191681 41.39802337249286 4.663253208659714 0 0 0
4243 1 23.381568661176786 42.297980401741725 3.1043466666666744 0 0 0
4252 2 24.940339960436766 41.39802337249286 4.663253208659712 0 0 0
4805 3 1.5587704715371076 44.09789446020414 1.5454401246736271 0 0 0
4811 3 4.676313070057093 44.09789446020414 1.5454401246736174 0 0 0
4817 3 7.793855668577042 44.09789446020414 1.5454401246736185 0 0 0
4823 3 10.911398267096988 44.09789446020414 1.5454401246736191 0 0 0
4829 3 14.028940865616935 44.09789446020412 1.5454401246736205 0 0 0
4835 3 17.146483464136878 44.09789446020412 1.5454401246736222 0 0 0
4841 3 20.264026062656832 44.09789446020412 1.5454401246736194 0 0 0
4847 3 23.381568661176775 44.09789446020412 1.5454401246736214 0 0 0
4812 3 3.1175417707971134 46.79776554791541 1.5454401246736165 0 0 0
4818 3 6.235084369317069 46.79776554791541 1.5454401246736167 0 0 0
4824 3 9.352626967837017 46.79776554791541 1.5454401246736194 0 0 0
4830 3 12.470169566356958 46.79776554791541 1.5454401246736182 0 0 0
4836 3 15.58771216487691 46.79776554791538 1.5454401246736182 0 0 0
4842 3 18.705254763396862 46.79776554791541 1.5454401246736185 0 0 0
4848 3 21.82279736191681 46.79776554791541 1.5454401246736211 0 0 0
4854 3 24.940339960436766 46.79776554791541 1.5454401246736182 0 0 0
5405 3 1.5587704715371038 49.49763663562666 1.5454401246736302 0 0 0
5411 3 4.676313070057093 49.497636635626655 1.5454401246736165 0 0 0
5417 3 7.7938556685770415 49.497636635626655 1.5454401246736165 0 0 0
5423 3 10.911398267096988 49.497636635626655 1.5454401246736178 0 0 0
5429 3 14.028940865616935 49.497636635626655 1.5454401246736171 0 0 0
5435 3 17.146483464136878 49.497636635626655 1.5454401246736162 0 0 0
5441 3 20.264026062656832 49.497636635626655 1.5454401246736151 0 0 0
5447 3 23.381568661176786 49.497636635626655 1.5454401246736156 0 0 0
5412 3 3.1175417707971147 52.19750772333792 1.545440124673612 0 0 0
5418 3 6.235084369317066 52.19750772333792 1.5454401246736145 0 0 0
5424 3 9.352626967837013 52.19750772333792 1.5454401246736138 0 0 0
5430 3 12.470169566356958 52.19750772333792 1.5454401246736136 0 0 0
5436 3 15.58771216487691 52.19750772333792 1.5454401246736138 0 0 0
5442 3 18.70525476339686 52.19750772333792 1.5454401246736138 0 0 0
5448 3 21.822797361916813 52.19750772333792 1.5454401246736154 0 0 0
5454 3 24.940339960436766 52.19750772333793 1.5454401246736158 0 0 0
6005 3 1.5587704715371062 54.897378811049165 1.5454401246736227 0 0 0
6011 3 4.676313070057093 54.897378811049165 1.5454401246736165 0 0 0
6017 3 7.7938556685770415 54.897378811049165 1.5454401246736176 0 0 0
6023 3 10.911398267096988 54.897378811049165 1.5454401246736187 0 0 0
6029 3 14.028940865616935 54.897378811049165 1.5454401246736182 0 0 0
6035 3 17.146483464136878 54.897378811049165 1.5454401246736194 0 0 0
6041 3 20.26402606265684 54.897378811049165 1.5454401246736194 0 0 0
6047 3 23.381568661176786 54.897378811049165 1.5454401246736176 0 0 0
6012 3 3.117541770797114 57.597249898760445 1.5454401246736151 0 0 0
6018 3 6.235084369317069 57.597249898760445 1.545440124673617 0 0 0
6024 3 9.352626967837013 57.597249898760445 1.5454401246736176 0 0 0
6030 3 12.470169566356963 57.597249898760445 1.5454401246736176 0 0 0
6036 3 15.58771216487691 57.597249898760445 1.5454401246736191 0 0 0
6042 3 18.705254763396862 57.597249898760445 1.5454401246736182 0 0 0
6048 3 21.82279736191681 57.597249898760445 1.5454401246736185 0 0 0
6054 3 24.940339960436766 57.597249898760445 1.5454401246736194 0 0 0
6605 3 1.558770471537106 60.29712098647171 1.5454401246736233 0 0 0
6611 3 4.676313070057095 60.29712098647171 1.5454401246736165 0 0 0
6617 3 7.793855668577042 60.29712098647171 1.5454401246736191 0 0 0