LAMMPS data file via write_data, version 21 Nov 2023, timestep = 128, units = metal

9441 atoms
3 atom types

0 311.7537464091801 xlo xhi
0 86.39573507887778 ylo yhi
0 50 zlo zhi
0 0 0 xy xz yz

Masses

1 95.94
2 32.065
3 32.065

Atoms # atomic

9441 3 1.5587785061556665 0.8999561638254782 1.5454309751260458 0 0 0
6283 3 4.676332606717619 0.8999576880459648 1.545459089214477 0 0 0
6288 3 7.793891691061413 0.8999621587958979 1.5455166266117362 0 0 0
6291 3 10.911378652063808 0.8999557172913679 1.545411006183136 0 0 0
6293 3 14.028869243181514 0.8999628179362115 1.5455100031862778 0 0 0
6294 3 17.146438224186788 0.8999617530551848 1.5454566759563635 0 0 0
6719 3 20.26400701339541 0.899966523124562 1.5454520911358627 0 0 0
6850 3 23.381576448576446 0.8999743761786297 1.5454922249921255 0 0 0
6297 3 3.117550332046085 3.5998238026990452 1.5454396600665472 0 0 0
6256 3 6.2350923359822445 3.599817097393089 1.5454698486106695 0 0 0
6262 3 9.352628438992548 3.5997809788980866 1.5455172951778033 0 0 0
6309 3 12.470127598442794 3.5997808853665663 1.5455120397802646 0 0 0
6367 3 15.58767366324982 3.5998159683497977 1.5454629380735547 0 0 0
6376 3 18.70523152587851 3.5998245057214007 1.545452377844261 0 0 0
7126 3 21.822794852345954 3.5998295416926456 1.545481009874567 0 0 0
7124 3 24.940354643476137 3.5998429545805464 1.5455572675297062 0 0 0
6354 3 1.558776203824094 6.299699836658274 1.5454342995929828 0 0 0
6324 3 4.676316949821768 6.299693559436734 1.5454538991505606 0 0 0
6322 3 7.793851747431933 6.299677594348663 1.5454747225284038 0 0 0
6317 3 10.911373436991845 6.299672881144491 1.5454794614649499 0 0 0
6311 3 14.028903631960251 6.299671810114029 1.545460652114748 0 0 0
6331 3 17.146456385769675 6.2996833016550315 1.5454451184619085 0 0 0
7152 3 20.264018983929727 6.299685077023761 1.54545905161829 0 0 0
7150 3 23.3815906317414 6.2996820779480265 1.5455227759779162 0 0 0
6266 3 3.1175494714398826 8.999578840953726 1.545461810022667 0 0 0
6255 3 6.235077813398013 8.999566688293914 1.5454744370066336 0 0 0
6286 3 9.352599363822678 8.999562118165358 1.5454766770881194 0 0 0
6350 3 12.470134163174773 8.999550652189042 1.5454601412376063 0 0 0
6401 3 15.587677949808816 8.99954917988359 1.5454403884433003 0 0 0
6543 3 18.705230801701287 8.999548876675343 1.5454384817346771 0 0 0
7084 3 21.822782533748928 8.999539599420569 1.5454610996219784 0 0 0
7083 3 24.9403288491133 8.999496391200523 1.545517254161579 0 0 0
6544 3 1.5587791605285664 11.69944556047263 1.5454839083583536 0 0 0
6545 3 4.676329601181632 11.699462336430686 1.5455167339965563 0 0 0
6546 3 7.793812415744297 11.699456192064604 1.5455160819422964 0 0 0
6554 3 10.911356594500713 11.699427822149845 1.5454752360254038 0 0 0
6556 3 14.028901313113307 11.699421564248272 1.5454461229413001 0 0 0
6557 3 17.146450834611336 11.699418413720299 1.5454305254116736 0 0 0
7116 3 20.264000293727186 11.699412256255343 1.5454345132613798 0 0 0
7115 3 23.381546344184546 11.699394499749376 1.545453426486233 0 0 0
7034 3 3.1175711607638106 14.39930082714586 1.545527534894003 0 0 0
7037 3 6.235068053964423 14.399289818121124 1.5454106711294 0 0 0
7039 3 9.352560896832241 14.399293417370163 1.5455134688174499 0 0 0
7024 3 12.470121841444765 14.39928836228317 1.5454597250177233 0 0 0
7023 3 15.587674586095055 14.399288378927155 1.5454342111477106 0 0 0
7006 3 18.705223191905617 14.399286251145654 1.5454258878239386 0 0 0
6539 3 21.82276766386707 14.399279190335994 1.5454304736328925 0 0 0
6563 3 24.940305952865607 14.399272630130195 1.5454398441034825 0 0 0
7031 3 1.5587588744631968 17.09914827518999 1.5454945382063927 0 0 0
7032 3 4.676312415902644 17.099112329198082 1.5455201867081887 0 0 0
7035 3 7.793819736919624 17.09911084765692 1.5455136840371781 0 0 0
7038 3 10.91136211155895 17.09914596872802 1.5454664721156568 0 0 0
7040 3 14.028906430175661 17.099153822175026 1.5454421216300624 0 0 0
7021 3 17.146452671754318 17.09915803537984 1.545429613047184 0 0 0
6295 3 20.26399511352879 17.09915760506166 1.5454285201960898 0 0 0
6547 3 23.381532583624775 17.09915453360573 1.5454311376526924 0 0 0
7007 3 3.1175341712964104 19.798999530410093 1.5454718745763436 0 0 0
6949 3 6.23506825030884 19.798996807716662 1.5454719360065772 0 0 0
6950 3 9.352599000021577 19.798999906243047 1.545460112762431 0 0 0
6951 3 12.470142269675355 19.799016048897307 1.5454444717414917 0 0 0
6952 3 15.587686823742072 19.799025489464945 1.5454367360343946 0 0 0
6953 3 18.705229545987255 19.799032566745826 1.5454385317094201 0 0 0
6617 3 21.822764211988563 19.799033537564718 1.5454424849435617 0 0 0
6594 3 24.9402960366513 19.79903146990918 1.5454394843305619 0 0 0
5424 2 1.5587622775816752 0.8999570025000218 4.663244584775901 0 0 0
3009 1 3.1175415526826384 1.7999120108717748 3.1043480476615386 0 0 0
5426 2 4.6762964352592125 0.8999587914317212 4.663272283859025 0 0 0
3057 1 6.235086522001002 1.7999152959028593 3.1043845750887185 0 0 0
5429 2 7.793831123496006 0.8999638576979023 4.6633099235348565 0 0 0
3097 1 9.352693012239158 1.799865484682283 3.10444468329481 0 0 0
3105 1 12.470068272994293 1.799866055149964 3.1044397923695253 0 0 0
3139 1 15.587675858766694 1.7999151042515051 3.1043780378368475 0 0 0
5219 2 14.028930807637973 0.8999644389797912 4.66330338686335 0 0 0
5225 2 17.146459784347908 0.8999563402889061 4.66326976067915 0 0 0
3138 1 18.70522378632283 1.7999113777115274 3.1043571517105013 0 0 0
3936 2 20.263986781885162 0.8999485584545786 4.663265795002017 0 0 0
2675 1 21.822770252744416 1.7999115053030483 3.104378897788793 0 0 0
3996 2 23.38151629793721 0.8999485681908859 4.66330471744987 0 0 0
2677 1 24.94032181183379 1.7999180319015264 3.1044393793456675 0 0 0
3140 1 1.5587690091501423 4.499780479186098 3.1043359390311958 0 0 0
3197 1 4.676308312761065 4.49977887447021 3.104359953429049 0 0 0
5236 2 3.117526885169654 3.599824034543378 4.663253480581168 0 0 0
3170 1 7.793846612292559 4.49976800135933 3.104389656979585 0 0 0
5239 2 6.235062012714251 3.5998274012556046 4.663286084445976 0 0 0
5271 2 9.352602101478976 3.599828210016871 4.6633107351754415 0 0 0
3142 1 10.911379600982238 4.499777791819292 3.1044074713922796 0 0 0
5272 2 12.470161988811652 3.5998291454193003 4.663305476012922 0 0 0
3189 1 14.0289143879172 4.499766868831524 3.1043799953778546 0 0 0
5304 2 15.58769617426551 3.5998278972101967 4.6632791318257745 0 0 0
3130 1 17.146455501871117 4.499776356069274 3.10435798305281 0 0 0
2554 1 20.26399881396666 4.499776508261398 3.1043689136638624 0 0 0
5307 2 18.705221706370786 3.599821596423127 4.663266364209068 0 0 0
2555 1 23.381537648737478 4.499773465064681 3.104423744098881 0 0 0
4321 2 21.82274300780082 3.5998149796313754 4.6632975164890995 0 0 0
4325 2 24.940282609655988 3.599812361449295 4.663352950490899 0 0 0
5309 2 1.5587628054453346 6.29968677826042 4.663247857658013 0 0 0
3131 1 3.1175395030946214 7.199650169207114 3.104353734381438 0 0 0
5311 2 4.676297158245035 6.2996878005510775 4.663267942843056 0 0 0
3173 1 6.2350768989043015 7.199644375513972 3.104373110396638 0 0 0
5315 2 7.793838242834951 6.299688054498499 4.663288112404616 0 0 0
3063 1 9.352610004115784 7.199645356596462 3.1043837678373922 0 0 0
3045 1 12.470146742433457 7.1996416862897625 3.1043733644387608 0 0 0
5318 2 10.911382607475606 6.299701103714925 4.663295991180365 0 0 0
3033 1 15.587684917920312 7.199640020444251 3.104352603459982 0 0 0
5325 2 14.02892520152691 6.299691007121043 4.663273805156561 0 0 0
5301 2 17.14645839590063 6.299692073068991 4.663258854198447 0 0 0
3120 1 18.70522950124488 7.1996416577979865 3.104351031874334 0 0 0
4298 2 20.26398786263995 6.299691777464691 4.663272143129001 0 0 0
2608 1 21.822777218001907 7.199643061309953 3.104381564230035 0 0 0
4302 2 23.38151498945932 6.299697511039285 4.663316287802715 0 0 0
2610 1 24.94038593286245 7.199589148421784 3.104455326697919 0 0 0
3111 1 1.5587701440973671 9.899516918754129 3.104370592795605 0 0 0
3104 1 4.676314057325968 9.899520267043336 3.1043856263183764 0 0 0
5605 2 3.1175344227014086 8.999549196972662 4.66327503757381 0 0 0
3012 1 7.793833948357724 9.89951921383969 3.1043911329138854 0 0 0
5658 2 6.235071019785616 8.999547198354856 4.663290600206462 0 0 0
5661 2 9.352609778536662 8.999557428297653 4.663290115632828 0 0 0
3091 1 10.911375994891342 9.8995120093218 3.1043781194244455 0 0 0
5663 2 12.470156571370328 8.999557445722738 4.66327429460079 0 0 0
3079 1 14.02891497042091 9.899509672640669 3.1043541356260604 0 0 0
5665 2 15.5876911205098 8.99955623219634 4.663254043676791 0 0 0
3062 1 17.146455152989795 9.899508099259615 3.1043405048470567 0 0 0
2607 1 20.26399724789816 9.899506538590458 3.104349556160866 0 0 0
5644 2 18.70522149647469 8.999557658364383 4.663252243966044 0 0 0
2604 1 23.381538506360165 9.899493738462066 3.1043784495905355 0 0 0
4155 2 21.822751955526297 8.999560880419848 4.66327707754439 0 0 0
4161 2 24.940287154834877 8.999561561742361 4.663310827522359 0 0 0
5647 2 1.5587596794563148 11.699410040622261 4.663300635095016 0 0 0
3041 1 3.117536851046898 12.599380785273985 3.104414165680112 0 0 0
5650 2 4.676307058435866 11.699408660999715 4.66331006679987 0 0 0
3198 1 6.235072347182307 12.599471647525958 3.1044426533167653 0 0 0
5482 2 7.793840465393492 11.69941284518365 4.66330964959313 0 0 0
3160 1 9.352607709117216 12.599378223983903 3.104406332564711 0 0 0
3155 1 12.470143194702523 12.599377871117332 3.1043675295306685 0 0 0
5484 2 10.91139181978817 11.699418680999194 4.663291847969403 0 0 0
3154 1 15.587683992346436 12.599376551800127 3.104341722124196 0 0 0
5488 2 14.02892604763096 11.699422412450858 4.663260058788963 0 0 0
5490 2 17.14645738806431 11.699422329024669 4.663244139474213 0 0 0
3144 1 18.70522492564311 12.599374883786686 3.104334706537785 0 0 0
4342 2 20.263989777703713 11.699424403194747 4.663248290636638 0 0 0
3050 1 21.82276669384434 12.599370361648067 3.1043439586187427 0 0 0
4336 2 23.3815262371918 11.69942384302224 4.663266397123546 0 0 0
3056 1 24.940303393512238 12.599369534915189 3.104360967411183 0 0 0
2583 1 1.5587754805966791 15.299249553415482 3.1044109007661724 0 0 0
2582 1 4.676383752873296 15.29919879506719 3.1044481201911163 0 0 0
4921 2 3.117532692792575 14.399293805128105 4.663321205711038 0 0 0
2580 1 7.793758497526907 15.299196981073983 3.1044417050005944 0 0 0
4966 2 9.352620017933212 14.399295724795946 4.66330688467311 0 0 0
2673 1 10.911365774108203 15.299246529341852 3.104382741976526 0 0 0
4968 2 12.47015439777493 14.399291320068217 4.663272933428529 0 0 0
2669 1 14.028911346334274 15.299243353816271 3.104350692247212 0 0 0
4976 2 15.587690704922236 14.399288543817164 4.663247836852663 0 0 0
2695 1 17.14645372374694 15.299243423770704 3.1043345776640834 0 0 0
3124 1 20.26399445754589 15.299241714490831 3.1043329566745537 0 0 0
4932 2 18.705224419218503 14.39928788186199 4.663239452703868 0 0 0
3022 1 23.381532974264225 15.299240856463681 3.104338697047101 0 0 0
3304 2 21.822760590643483 14.399288206674784 4.663243971190963 0 0 0
3323 2 24.940297719163578 14.399293057891867 4.663253568749427 0 0 0
4915 2 1.5587608289792356 17.099164946884592 4.663310117030683 0 0 0
2694 1 3.117532996506948 17.99909966989254 3.1043969799652875 0 0 0
4919 2 4.676295112813839 17.0991628487553 4.663313461651506 0 0 0
2693 1 6.235070054460013 17.999108612584056 3.1044063974196403 0 0 0
4923 2 7.793851475602641 17.099161371117507 4.66330694829876 0 0 0
2692 1 9.35260518207476 17.99909843969555 3.1043829038371356 0 0 0
2636 1 12.470144853065195 17.999109152703348 3.1043577015458816 0 0 0
4960 2 10.911388503803009 17.099160856666536 4.663282702965446 0 0 0
2634 1 15.58768514032051 17.999110767232796 3.10434135748731 0 0 0
4971 2 14.028923522226313 17.099156202491777 4.66325602675727 0 0 0
4978 2 17.146457534645403 17.099153227468907 4.663243259214198 0 0 0
2633 1 18.705225084894106 17.999111907326608 3.1043371973619327 0 0 0
3244 2 20.263992933115524 17.09915128387786 4.663242119641954 0 0 0
3182 1 21.822763032572265 17.999111421249097 3.10433936091465 0 0 0
3307 2 23.38153107213264 17.099152900404288 4.663244810219057 0 0 0
3145 1 24.940300508605688 17.999111321458635 3.1043394713103165 0 0 0
2631 1 1.5587646526099448 20.69897416007617 3.1043722839476757 0 0 0
2630 1 4.67630217517679 20.69897338449295 3.1043700175663633 0 0 0
4936 2 3.1175346752084283 19.79902903740872 4.663285115892206 0 0 0
2627 1 7.793839204137335 20.69897300981813 3.104365652875631 0 0 0
4940 2 6.235073136964452 19.79903761063444 4.663288522941355 0 0 0
4794 2 9.352613922340627 19.799026257238975 4.663273341683963 0 0 0
2642 1 10.911375948307198 20.69897315729723 3.1043533268477033 0 0 0
4800 2 12.470151846793446 19.799025357705222 4.663258391688796 0 0 0
2644 1 14.028916755711629 20.69897729529627 3.1043456272770684 0 0 0
4803 2 15.587687033674952 19.799020027010318 4.6632505284820205 0 0 0
2661 1 17.146456670160553 20.698979330657743 3.104347260215018 0 0 0
3184 1 20.263995963557505 20.69898303633594 3.1043543855569644 0 0 0
4805 2 18.705223751874605 19.799016871236464 4.663252188328608 0 0 0
3180 1 23.381531564963986 20.698981839550623 3.1043561020148367 0 0 0
3803 2 21.822762507274103 19.79901458807572 4.663256343879947 0 0 0
3743 2 24.94030351158194 19.799016907711525 4.663253268017931 0 0 0
4754 2 1.896221650416048e-06 19.799031496039277 4.663293646593699 1 0 0
6880 3 4.696074741750693e-06 8.999575562216872 1.5454480405366988 1 0 0
4764 2 3.994045335923874e-06 14.399285482555872 4.663314691333268 1 0 0
6796 3 1.7055297626361844e-06 3.599824862235359 1.545423365833688 1 0 0
6626 3 2.9683446635485177e-06 14.399303846459784 1.5454987290521196 1 0 0
1731 1 1.282410147553803e-07 12.599383729190288 3.1043935187882647 1 0 0
6956 3 1.5587555784133573 22.498880634397192 1.5454546853097197 0 0 0
6958 3 4.6762985417005645 22.498875305622413 1.545447711077596 0 0 0
6961 3 7.7938376063784744 22.49887451097419 1.5454435379453582 0 0 0
6963 3 10.91137735541153 22.498879915487613 1.5454382252235443 0 0 0
6964 3 14.028922260399186 22.49888987297874 1.545438848753167 0 0 0
6945 3 17.146467031315506 22.49889939209948 1.5454495676321107 0 0 0
6574 3 20.264006381668914 22.49891175400696 1.5454641493786423 0 0 0
6577 3 23.381528846476083 22.498909369654225 1.5454656751500506 0 0 0
6932 3 3.1175214253159456 25.19875521478473 1.545442701203583 0 0 0
6934 3 6.235066318224009 25.198750498467103 1.54543271685905 0 0 0
6935 3 9.352609597758162 25.198750465000273 1.5454293942117976 0 0 0
6982 3 12.47015438556232 25.198754132284858 1.5454335551175573 0 0 0
7070 3 15.587701679130273 25.19876067836192 1.5454495050160362 0 0 0
7080 3 18.705246764862647 25.198769182450107 1.545476890053114 0 0 0
6585 3 21.822790280214484 25.198795529231454 1.5455159016722073 0 0 0
6425 3 24.940270461592416 25.19879729413182 1.5455081725378859 0 0 0
7081 3 1.5587399334794843 27.898631590224838 1.5454603542184313 0 0 0
7082 3 4.676289171555889 27.898625460722638 1.5454356447402542 0 0 0
7179 3 7.793836513104502 27.89862220468865 1.54542501632564 0 0 0
7180 3 10.911382825959626 27.898621642190665 1.5454260087831606 0 0 0
7181 3 14.028930158974886 27.898622425077814 1.545438731725445 0 0 0
7182 3 17.146481310788058 27.898623385584816 1.5454648172160252 0 0 0
6505 3 20.264040905075905 27.89862811087256 1.5455160696332833 0 0 0
6503 3 23.381532046786894 27.898623920038318 1.5454046963102344 0 0 0
6681 3 3.117507142135599 30.59849617471653 1.545451636934027 0 0 0
6682 3 6.235059528928589 30.598494324917556 1.5454289767425702 0 0 0
6683 3 9.352607989252213 30.598491703327916 1.545422020030684 0 0 0
6688 3 12.47015405633262 30.59848972347263 1.545428097221001 0 0 0
6689 3 15.587698254307478 30.59848650716685 1.545444576729753 0 0 0
6691 3 18.705239882898383 30.598479211265023 1.5454675722814344 0 0 0
8740 3 21.822781393733855 30.598444388924115 1.5455090842752877 0 0 0
8741 3 24.940292664412294 30.598451177949404 1.5455084390109186 0 0 0
6693 3 1.5587447309866542 33.29836383234774 1.5454752752780796 0 0 0
6694 3 4.6762849076278 33.29836858660432 1.5454456699598598 0 0 0
6679 3 7.793833237557863 33.29836542959038 1.5454276834788445 0 0 0
6695 3 10.91137999568643 33.298362319185074 1.545425363694449 0 0 0
6678 3 14.028922391009313 33.298358495302224 1.5454338415714208 0 0 0
6676 3 17.146461509127647 33.298351411919654 1.5454456456008023 0 0 0
8746 3 20.264001816674945 33.29833576500121 1.545457197700319 0 0 0
8747 3 23.381536769782432 33.29833360143829 1.5454645441890635 0 0 0
6662 3 3.1175087641149113 35.998249182860924 1.5454818298564146 0 0 0
6663 3 6.235055649177335 35.998241456189604 1.545450763229172 0 0 0
6664 3 9.352607052799701 35.99823881421464 1.545436532167193 0 0 0
6794 3 12.470150651017946 35.99823520458823 1.5454389308312133 0 0 0
6810 3 15.587686453489079 35.998230388265256 1.5454445277208038 0 0 0
6793 3 18.705221565665422 35.99822182345539 1.5454443724816258 0 0 0
8733 3 21.822761608213334 35.99821265248374 1.5454414321722596 0 0 0
8732 3 24.940311396512904 35.99821102898911 1.5454454800072257 0 0 0
6791 3 1.5587235764603768 38.69813948816778 1.5455563493415903 0 0 0
6776 3 4.6762729677125145 38.69811458995181 1.5454942244407455 0 0 0
6777 3 7.793831419740832 38.6981095740389 1.5454621468070306 0 0 0
6778 3 10.911386126567505 38.69811472557699 1.5454589465607118 0 0 0
6780 3 14.028917310684259 38.6981092149207 1.545464303588779 0 0 0
6837 3 17.146441925600296 38.69810775482664 1.5454610311864625 0 0 0
8628 3 20.263980752018835 38.69809369327285 1.5454445937938892 0 0 0
8627 3 23.381528005340023 38.69808586519958 1.545431799277719 0 0 0
6841 3 3.11746934961281 41.39797544188379 1.5455605223403555 0 0 0
6842 3 6.235047942336771 41.39796822166352 1.5454889658628586 0 0 0
6843 3 9.352617483574164 41.39797240132195 1.5454781142902476 0 0 0
6844 3 12.470175069377989 41.39799650076781 1.545511265020296 0 0 0
6846 3 15.587656987745817 41.397995100253034 1.545513639389253 0 0 0
6848 3 18.705199863010968 41.397968294223645 1.5454713433552012 0 0 0
8622 3 21.82274516117188 41.397959612091235 1.545440228895948 0 0 0
8621 3 24.940297611793802 41.397953242321066 1.5454258855645677 0 0 0
4807 2 1.5587688950018537 22.498894278986523 4.663268348541933 0 0 0
2450 1 3.1175316154818216 23.39884335411972 3.104352358535789 0 0 0
4782 2 4.676303566823161 22.49889699229621 4.663261606389776 0 0 0
2446 1 6.235070642581254 23.398842506073848 3.104346733015843 0 0 0
4765 2 7.793842798179746 22.498896868414924 4.663257434137726 0 0 0
2442 1 9.352609245370553 23.398842566263834 3.104342694640595 0 0 0
2412 1 12.470148048079308 23.39884324604967 3.104342507710953 0 0 0
4756 2 10.911379223603138 22.49889205597388 4.663251921508275 0 0 0
2410 1 15.58768843555522 23.398845656564188 3.104352386737165 0 0 0
4759 2 14.02891469858418 22.49888845473047 4.663252649643189 0 0 0
4762 2 17.14645044370113 22.498882927498165 4.6632635371166025 0 0 0
2409 1 18.70522837089483 23.398848493369876 3.1043719176949534 0 0 0
3626 2 20.263994074471412 22.498882322547036 4.663277380994814 0 0 0
3171 1 21.82277166303968 23.39885548154335 3.104385749959344 0 0 0
3631 2 23.381535178264816 22.498878430857772 4.663281876208782 0 0 0
3037 1 24.94029240913686 23.39885619398824 3.104378148913463 0 0 0
2405 1 1.5587594022265612 26.098712594003537 3.104360278568022 0 0 0
2403 1 4.676299855249097 26.098711711965773 3.104342099118953 0 0 0
4822 2 3.1175381275955263 25.198756276202392 4.6632565310734595 0 0 0
2418 1 7.793839791266393 26.098711231770785 3.104334513643583 0 0 0
4837 2 6.235073686288649 25.198759704752728 4.663246366826414 0 0 0
4832 2 9.352609729523161 25.1987593982987 4.663243113741067 0 0 0
2433 1 10.911379488132274 26.098711050668022 3.104335258506278 0 0 0
5107 2 12.470144427927005 25.198756809131304 4.663247270211022 0 0 0
2432 1 14.028919580727333 26.098711571411613 3.1043466576531666 0 0 0
5110 2 15.587678351158441 25.198754516638203 4.663263501070245 0 0 0
2402 1 17.146460621330363 26.098713253109906 3.104372158868299 0 0 0
3069 1 20.263996708464717 26.098713873491814 3.1044094112744736 0 0 0
5112 2 18.705213141769203 25.1987494753172 4.66329353091706 0 0 0
3127 1 23.381532927872826 26.098808065870703 3.10443984518374 0 0 0
3691 2 21.82276677980202 25.198745617749214 4.663309127821589 0 0 0
3559 2 24.94030433044133 25.198745590122822 4.663301290300828 0 0 0
5114 2 1.5587764082955344 27.89861709881524 4.663276585176244 0 0 0
2942 1 3.1175275784186414 28.79858007206995 3.104354884963286 0 0 0
5118 2 4.6763081161326925 27.898623233794677 4.663249385770554 0 0 0
2940 1 6.235068755398132 28.7985799507763 3.104334956242806 0 0 0
5123 2 7.793841818505372 27.898625065539967 4.663238623243241 0 0 0
2939 1 9.352609414829598 28.798579138684993 3.1043297221430786 0 0 0
2937 1 12.470150188277865 28.79857848667136 3.1043365989675777 0 0 0
5158 2 10.911376627083078 27.898624672567845 4.663239645890852 0 0 0
2938 1 15.587692381639997 28.798578136354138 3.10435553829396 0 0 0
5194 2 14.02891191551973 27.898624212681305 4.663252430597894 0 0 0
5125 2 17.146450071366406 27.898626593363726 4.663278073838189 0 0 0
2941 1 18.705238051407687 28.798581682769942 3.104386407229249 0 0 0
3580 2 20.26398632282047 27.898632167904623 4.663309332940758 0 0 0
3168 1 21.822846018890072 28.798532268991497 3.1044400477710155 0 0 0
3196 1 24.940223444189037 28.798534249653496 3.1044332250462814 0 0 0
2499 1 1.5587505807989366 31.498449935745363 3.104377630433042 0 0 0
2498 1 4.676295446779106 31.498448321900376 3.104346039656069 0 0 0
5047 2 3.117538794436785 30.598489339268752 4.663264613903336 0 0 0
2497 1 7.793838021671585 31.49844772610178 3.104330651358393 0 0 0
5049 2 6.235074455702965 30.598490559303038 4.663242397046605 0 0 0
5053 2 9.352608742644533 30.59849100416517 4.663235593551301 0 0 0
2496 1 10.911378703050383 31.498446659243644 3.10433008088532 0 0 0
5068 2 12.470143445792912 30.598491110479507 4.663241787168852 0 0 0
2662 1 14.028918849917892 31.49844547753949 3.1043410219041356 0 0 0
5058 2 15.587679594709131 30.598492908454883 4.6632584700814315 0 0 0
2963 1 17.146458944284063 31.49844413331179 3.104359314770382 0 0 0
3076 1 20.26399849616489 31.49843367021922 3.1043803513637727 0 0 0
5062 2 18.705217080507204 30.598497740106534 4.663283816840956 0 0 0
3070 1 23.381534182827707 31.49844346469822 3.104397464253373 0 0 0
3427 2 21.82275512392177 30.59849850411978 4.663302232439389 0 0 0
3434 2 24.940308589477336 30.59849428499292 4.663302127023459 0 0 0
5064 2 1.5587757856430713 33.298351821126246 4.66329135127338 0 0 0
2901 1 3.117527444072882 34.19831807765851 3.1043718499633743 0 0 0
5066 2 4.676310495451512 33.29835392065825 4.6632592703588305 0 0 0
2900 1 6.235068329671965 34.1983162904992 3.104345030966914 0 0 0
6191 2 7.79384398188382 33.2983550045284 4.663241240771832 0 0 0
2897 1 9.352608968674032 34.198316034084094 3.1043338096210693 0 0 0
2896 1 12.47014821538945 34.198314320203295 3.1043374700289426 0 0 0
6171 2 10.911376702555307 33.298355416141334 4.663239017896782 0 0 0
2923 1 15.58768746389369 34.19831272028983 3.1043466774678516 0 0 0
6211 2 14.028912895927906 33.29835640007815 4.663247577220544 0 0 0
6116 2 17.146452092670042 33.29836005360305 4.663259561695919 0 0 0
2922 1 18.705227318569122 34.198309066878046 3.1043540453787117 0 0 0
3481 2 20.263992125957195 33.298361122465174 4.663270317759738 0 0 0
3008 1 21.822764678364063 34.19830770984014 3.1043601077444793 0 0 0
3486 2 23.381530860183712 33.29837071297395 4.663281036576172 0 0 0
3059 1 24.94030312454511 34.1983077684532 3.104365433988552 0 0 0
2921 1 1.5587521380190308 36.898188210859445 3.104416440253122 0 0 0
2920 1 4.676297662391979 36.89818510940453 3.1043810789280206 0 0 0
6140 2 3.117542066266516 35.99821586819364 4.663294911066163 0 0 0
2919 1 7.793838970235946 36.89818396111266 3.1043539593400373 0 0 0
6049 2 6.2350807571751625 35.99821575304078 4.663264584762798 0 0 0
6220 2 9.352612196030357 35.99821871158262 4.6632501294239175 0 0 0
2917 1 10.91137996226503 36.898185373654435 3.1043489815143768 0 0 0
6167 2 12.470145209804231 35.998217676935894 4.663252775394191 0 0 0
2860 1 14.02891708779527 36.89818223696954 3.104355216414379 0 0 0
6163 2 15.58768501402442 35.99821906223163 4.663258437876673 0 0 0
2857 1 17.146454066650698 36.89818168308309 3.1043552328600543 0 0 0
3179 1 20.263993146848936 36.898177570196175 3.1043482167879777 0 0 0
6183 2 18.7052257653511 35.998222955150595 4.663257997124198 0 0 0
3185 1 23.381533081447724 36.898175930566595 3.104343093491945 0 0 0
3813 2 21.82276383783613 35.998227965142746 4.663255272196102 0 0 0
4477 2 24.940296980145888 35.99822945017735 4.663259261680288 0 0 0
6201 2 1.5587700540690503 38.69807227112693 4.663348774581143 0 0 0
2853 1 3.1175298336501385 39.59805036832382 3.104441979430157 0 0 0
6204 2 4.676322148034929 38.69807836884344 4.663310635965374 0 0 0
2868 1 6.235067921064001 39.59805091493424 3.1043880898523866 0 0 0
6185 2 7.793847711747737 38.698082508267284 4.663276199001473 0 0 0
2870 1 9.352610609881586 39.598050883627344 3.104372190844804 0 0 0
2885 1 12.470155547189503 39.59805561789915 3.1043800622210784 0 0 0
6231 2 10.911380179661972 38.69808351160344 4.663272146117992 0 0 0
2969 1 15.587677156234758 39.598054327441055 3.1043825538860554 0 0 0
6208 2 14.028915179460471 38.69807839687129 4.663280536906501 0 0 0
5845 2 17.146455529187715 38.6980837174662 4.663274187785512 0 0 0
2967 1 18.70522046725749 39.59804735516027 3.1043665708906367 0 0 0
4540 2 20.26399951484606 38.69808566023207 4.663258524350916 0 0 0
3172 1 21.822760296503343 39.598044768051146 3.1043439817227467 0 0 0
4504 2 23.38153341249695 38.698090722118984 4.663245408536009 0 0 0
3038 1 24.94030127259748 39.598043254297195 3.104336099662478 0 0 0
2966 1 1.5586821964535937 42.29786738501126 3.1045130165890185 0 0 0
2999 1 4.676290692129329 42.2979185339726 3.104418081676351 0 0 0
5695 2 3.1175605469256946 41.397959736314505 4.663354433076254 0 0 0
2990 1 7.793839437574798 42.29791481243142 3.1043863055575875 0 0 0
5742 2 6.235080703511746 41.39795802798811 4.663302456979524 0 0 0
5748 2 9.352603848772063 41.39795054266364 4.663294633206916 0 0 0
2987 1 10.911379164055782 42.29791410957206 3.104404102055924 0 0 0
5751 2 12.470147440942421 41.39794423246002 4.663304574992585 0 0 0
2985 1 14.0289160720116 42.29800615261078 3.1044404521163576 0 0 0
5757 2 15.587683785991645 41.39794343455654 4.663306958905697 0 0 0
2964 1 17.146451898640414 42.297913068348755 3.104406402624101 0 0 0
3101 1 20.263987499736412 42.29791297807308 3.104364807541801 0 0 0
5760 2 18.705237095557575 41.39794845803202 4.663287935796431 0 0 0
3114 1 23.381528282564858 42.29791167453595 3.1043361822004636 0 0 0
4423 2 21.822770905357412 41.397954501092215 4.663254102441648 0 0 0
4443 2 24.940299470912258 41.39795775374982 4.663239542484177 0 0 0
4965 2 6.1363041665294575e-06 30.598492365894554 4.663298448469177 1 0 0
4945 2 2.4863270157663777e-07 25.19875476469898 4.663275703866967 1 0 0
7227 3 1.5587016821589779 44.09778344847395 1.5455968130682902 0 0 0
7226 3 4.676275707209864 44.097815125819885 1.545499246410727 0 0 0
7233 3 7.793848188272754 44.097822155359566 1.5454760790000526 0 0 0
7225 3 10.911423049824 44.097829129899864 1.5455116811429193 0 0 0
7223 3 14.028918406579862 44.09782330485349 1.5454079973428807 0 0 0
7222 3 17.146405860345094 44.09782935291019 1.5455157416223309 0 0 0
8874 3 20.26396404413995 44.0978244007131 1.5454587088449963 0 0 0
8875 3 23.381516977054343 44.09782306970596 1.5454283230801305 0 0 0
7221 3 3.1175109193411616 46.7976608293188 1.5454931356680357 0 0 0
7220 3 6.235066896619071 46.797677024315995 1.5454606686123962 0 0 0
7219 3 9.352622834159025 46.79767752542321 1.5454638910337184 0 0 0
7218 3 12.47016952636465 46.797645613526065 1.5455091149065423 0 0 0
6981 3 15.587669239764768 46.797645183186624 1.5455146359127654 0 0 0
6980 3 18.705205591549074 46.797681125923965 1.5454674014283623 0 0 0
8881 3 21.822747450066725 46.79768875505389 1.5454367444464352 0 0 0
8888 3 24.940295202687718 46.797691839744246 1.54541843877578 0 0 0
6979 3 1.558747492922444 49.49752699033395 1.545479060038184 0 0 0
6972 3 4.676291943788414 49.49754145423543 1.5454466043167836 0 0 0
7026 3 7.793844756857336 49.497545061248346 1.5454369556317662 0 0 0
7025 3 10.911394010150232 49.49753487703786 1.5454525068534075 0 0 0
6622 3 14.028922528366738 49.49753398417425 1.545470200550732 0 0 0
6927 3 17.1464455997928 49.49753821226461 1.5454638273864483 0 0 0
8886 3 20.263983561081567 49.4975547456491 1.5454433698254046 0 0 0
8887 3 23.381526728926303 49.49756378992501 1.545426653299021 0 0 0
6620 3 3.1175179584766606 52.197417551722495 1.5454456438645492 0 0 0
6428 3 6.235066461171789 52.197419291897724 1.5454253344859494 0 0 0
6281 3 9.352617177290405 52.19741596624246 1.5454267309386351 0 0 0
6277 3 12.470158681747577 52.19741353235301 1.5454429788683834 0 0 0
6282 3 15.587691943948277 52.197417974057956 1.5454537377226925 0 0 0
6285 3 18.70522296282981 52.19742605908888 1.5454507897811887 0 0 0
8769 3 21.822760493003237 52.19743691943949 1.5454429564852987 0 0 0
8767 3 24.940303845687918 52.19744535797379 1.5454411445277558 0 0 0
6289 3 1.5587426617037514 54.89729996025046 1.5454662278092506 0 0 0
6306 3 4.6762875624609945 54.897296292329756 1.5454353560098864 0 0 0
6292 3 7.793838471957196 54.89729343127145 1.5454216139604837 0 0 0
6275 3 10.911388216390955 54.89729085616918 1.5454288814498895 0 0 0
6267 3 14.028931426561977 54.89729311050435 1.5454474108915908 0 0 0
6355 3 17.146469891628506 54.8973064148219 1.5454629008696874 0 0 0
8762 3 20.263997755739407 54.897310770528314 1.5454681696294243 0 0 0
8761 3 23.381530977962225 54.89732181264527 1.5454711171451891 0 0 0
6526 3 3.117506337257973 57.59717035132551 1.545463682170295 0 0 0
6564 3 6.235057374512021 57.59716873060256 1.5454361360489124 0 0 0
6599 3 9.3526107257756 57.59716401457261 1.545428522936781 0 0 0
6487 3 12.470162717203625 57.59716258165107 1.5454421879529552 0 0 0
6404 3 15.587710274645962 57.59716825427451 1.5454698924572918 0 0 0