LAMMPS data file via write_data, version 2 Aug 2023, timestep = 799, units = metal

9504 atoms
3 atom types

0 311.7538727513729 xlo xhi
0 86.39580616528728 ylo yhi
0 50 zlo zhi
0 0 0 xy xz yz

Masses

1 95.94
2 32.065
3 32.065

Atoms # atomic

1 3 1.558768513940233 0.8999562531561366 1.5454397625736356 0 0 0
2 3 4.676307177626225 0.8999562500794999 1.5454397598595526 0 0 0
3 3 7.79384578859222 0.8999562451382427 1.5454397550372911 0 0 0
4 3 10.911384342406517 0.8999562422031872 1.5454397586331956 0 0 0
5 3 14.028922887128246 0.8999562443377878 1.545439773419919 0 0 0
6 3 17.14646158742072 0.8999562634959681 1.545439724122188 0 0 0
145 3 20.264000899601566 0.899956341630793 1.545439649154423 0 0 0
146 3 23.381541285188874 0.8999564464142268 1.545440113172432 0 0 0
7 3 3.1175378506625204 3.5998251946539046 1.5454397614866584 0 0 0
8 3 6.235076490999281 3.5998251903252014 1.5454397574500136 0 0 0
9 3 9.35261507108968 3.5998251858200145 1.5454397546629877 0 0 0
10 3 12.470153610082875 3.5998251851487573 1.5454397671273323 0 0 0
11 3 15.58769219790134 3.59982519233584 1.5454397634018517 0 0 0
12 3 18.705231126821015 3.5998252356333267 1.5454396666897237 0 0 0
147 3 21.822770961187324 3.5998253434931944 1.5454397717241417 0 0 0
148 3 24.940311743598574 3.599825393100167 1.54544061853606 0 0 0
13 3 1.5587685139288439 6.2996941385432335 1.5454397624165204 0 0 0
14 3 4.6763071776498695 6.299694135433767 1.5454397598786256 0 0 0
15 3 7.793845788595728 6.299694130466424 1.5454397550704442 0 0 0
16 3 10.911384342406993 6.299694127527777 1.5454397586778172 0 0 0
17 3 14.028922887128173 6.299694129660101 1.5454397734653775 0 0 0
18 3 17.14646158741912 6.299694148820419 1.5454397241555073 0 0 0
149 3 20.264000899600557 6.299694226957803 1.5454396491881894 0 0 0
150 3 23.381541285182582 6.299694331741836 1.5454401131986186 0 0 0
19 3 3.1175378506411957 8.99956308002322 1.5454397615717437 0 0 0
20 3 6.235076490990537 8.999563075648581 1.5454397574811718 0 0 0
21 3 9.352615071087822 8.999563071142688 1.5454397546762022 0 0 0
22 3 12.47015361008267 8.999563070474093 1.5454397671274616 0 0 0
23 3 15.587692197898761 8.999563077661106 1.5454397634120378 0 0 0
24 3 18.70523112682469 8.999563120958532 1.545439666694759 0 0 0
151 3 21.822770961183178 8.99956322882048 1.5454397717303887 0 0 0
152 3 24.940311743596546 8.999563278427026 1.5454406185296932 0 0 0
25 3 1.5587685139612575 11.69943202380678 1.5454397624687266 0 0 0
26 3 4.676307177621234 11.699432020749393 1.5454397599461585 0 0 0
27 3 7.793845788596517 11.699432015794878 1.5454397550661125 0 0 0
28 3 10.911384342407851 11.699432012853588 1.5454397586703064 0 0 0
29 3 14.028922887129728 11.69943201498736 1.5454397734671466 0 0 0
30 3 17.146461587419015 11.699432034150211 1.545439724157191 0 0 0
153 3 20.26400089959961 11.699432112282967 1.5454396491889952 0 0 0
154 3 23.38154128518085 11.699432217071008 1.5454401131951552 0 0 0
93 3 3.1175378506864715 14.399300965314964 1.5454397615783106 0 0 0
95 3 6.235076490985738 14.399300960986011 1.5454397574441663 0 0 0
97 3 9.352615071086824 14.399300956468426 1.5454397546600456 0 0 0
98 3 12.470153610084663 14.399300955802241 1.5454397671163236 0 0 0
100 3 15.587692197901111 14.399300962985972 1.545439763401676 0 0 0
102 3 18.705231126824053 14.39930100628306 1.545439666685722 0 0 0
176 3 21.822770961189732 14.39930111415032 1.545439771725275 0 0 0
178 3 24.940311743596705 14.399301163761708 1.5454406185391654 0 0 0
91 3 1.5587685139497134 17.09916990919437 1.545439762414424 0 0 0
92 3 4.676307177652571 17.099169906081183 1.5454397598594525 0 0 0
94 3 7.793845788585169 17.099169901124498 1.5454397550653436 0 0 0
96 3 10.911384342410324 17.09916989818598 1.545439758651221 0 0 0
99 3 14.028922887130323 17.099169900318575 1.5454397734428058 0 0 0
101 3 17.146461587419022 17.09916991948286 1.545439724136132 0 0 0
175 3 20.264000899603836 17.099169997614336 1.5454396491705973 0 0 0
177 3 23.381541285187364 17.099170102397036 1.5454401131944355 0 0 0
103 3 3.1175378506735476 19.79903885066715 1.5454397615735724 0 0 0
104 3 6.2350764909830145 19.79903884632129 1.5454397574745582 0 0 0
105 3 9.352615071087584 19.799038841811477 1.545439754668142 0 0 0
106 3 12.470153610081926 19.799038841144807 1.545439767118448 0 0 0
107 3 15.587692197902443 19.79903884832851 1.545439763409384 0 0 0
108 3 18.705231126821214 19.79903889162761 1.5454396666880763 0 0 0
179 3 21.822770961188066 19.799038999485745 1.5454397717219517 0 0 0
180 3 24.940311743602145 19.799039049091213 1.5454406185466751 0 0 0
31 2 1.5587685140072123 0.8999562531527285 4.663253570946027 0 0 0
32 2 4.676307178356001 0.8999562502547536 4.663253572767601 0 0 0
33 1 3.1175378494118613 1.7999128315889743 3.1043466666767774 0 0 0
34 2 7.79384578768113 0.8999562447940458 4.663253575660859 0 0 0
35 1 6.235076488842134 1.7999128367787225 3.104346665654756 0 0 0
37 1 9.352615066639231 1.7999128433952876 3.104346666744979 0 0 0
36 2 10.911384331777542 0.8999562401543917 4.663253585482912 0 0 0
38 1 12.470153608104262 1.7999128445103736 3.1043466804932196 0 0 0
39 2 14.028922897841998 0.8999562492477121 4.663253593418503 0 0 0
40 1 15.587692237863552 1.7999128284751706 3.104346668221173 0 0 0
41 2 17.146461692757942 0.8999562799384048 4.6632535094919305 0 0 0
42 1 18.705231199872692 1.7999127844795126 3.104346540060231 0 0 0
155 2 20.264000849470715 0.8999563034686838 4.663253362584948 0 0 0
156 1 21.822770817422633 1.7999127083657753 3.1043465907934573 0 0 0
157 2 23.38154058079556 0.8999563514419532 4.663253717254139 0 0 0
158 1 24.94031141163218 1.7999126030965424 3.1043474042324006 0 0 0
43 1 1.5587685133248064 4.49978177287462 3.104346666762039 0 0 0
44 1 4.67630717588606 4.499781776435052 3.1043466663243824 0 0 0
45 2 3.117537850985276 3.5998251947377478 4.663253571851889 0 0 0
46 1 7.7938457856146375 4.499781782872886 3.1043466652592784 0 0 0
47 2 6.235076491734151 3.5998251904561154 4.663253573913421 0 0 0
49 2 9.352615065815089 3.599825184502158 4.66325357909819 0 0 0
48 1 10.91138433695013 4.499781787973943 3.1043466720390422 0 0 0
50 2 12.470153600667189 3.5998251845271647 4.663253593044003 0 0 0
51 1 14.028922899333264 4.49978178209688 3.1043466845035157 0 0 0
52 2 15.587692253773007 3.599825205588217 4.663253570283631 0 0 0
53 1 17.1464616581818 4.499781753088892 3.1043466168944134 0 0 0
54 2 18.705231224020654 3.5998252371460975 4.66325342093193 0 0 0
159 1 20.264000905495685 4.499781693080351 3.1043464965570693 0 0 0
160 2 21.822770599625745 3.599825257672178 4.663253434756541 0 0 0
161 1 23.381540975033992 4.499781601556142 3.1043469092575013 0 0 0
162 2 24.94031098719262 3.5998253799380944 4.663254156931706 0 0 0
55 2 1.5587685139988339 6.299694138532066 4.663253571131203 0 0 0
56 2 4.676307178385593 6.299694135601584 4.663253572770183 0 0 0
57 1 3.1175378493462 7.1996507168425 3.10434666667509 0 0 0
58 2 7.793845787675205 6.299694130126436 4.663253575615756 0 0 0
59 1 6.235076488838865 7.19965072211047 3.104346665657781 0 0 0
61 1 9.352615066635499 7.1996507287365645 3.1043466667443753 0 0 0
60 2 10.911384331779736 6.299694125475946 4.663253585441517 0 0 0
62 1 12.470153608104715 7.199650729853839 3.1043466804926854 0 0 0
63 2 14.028922897842683 6.299694134570102 4.663253593375066 0 0 0
64 1 15.587692237866237 7.199650713814046 3.104346668221903 0 0 0
65 2 17.146461692754396 6.29969416526317 4.663253509453902 0 0 0
66 1 18.705231199871438 7.199650669823195 3.1043465400593004 0 0 0
163 2 20.264000849473398 6.2996941887907205 4.663253362549743 0 0 0
164 1 21.82277081742895 7.199650593697752 3.1043465907936563 0 0 0
165 2 23.381540580788073 6.299694236765907 4.663253717234669 0 0 0
166 1 24.940311411638135 7.199650488439202 3.104347404232712 0 0 0
67 1 1.5587685132529026 9.899519658183065 3.1043466667499144 0 0 0
68 1 4.676307175906711 9.899519661777322 3.1043466663249006 0 0 0
69 2 3.1175378509902365 8.999563080090393 4.663253571714747 0 0 0
70 1 7.7938457856199 9.899519668217 3.1043466652599854 0 0 0
71 2 6.235076491726051 8.999563075778344 4.663253573890068 0 0 0
73 2 9.352615065809479 8.999563069826054 4.663253579086175 0 0 0
72 1 10.91138433695565 9.899519673312469 3.1043466720384503 0 0 0
74 2 12.470153600668603 8.999563069852533 4.663253593036472 0 0 0
75 1 14.028922899331196 9.899519667431717 3.1043466845033234 0 0 0
76 2 15.587692253771566 8.99956309091289 4.663253570280039 0 0 0
77 1 17.146461658185903 9.899519638424024 3.104346616894896 0 0 0
78 2 18.705231224020967 8.99956312247328 4.663253420924885 0 0 0
167 1 20.264000905492914 9.89951957841405 3.10434649655647 0 0 0
168 2 21.82277059962338 8.999563142998314 4.663253434746376 0 0 0
169 1 23.38154097504538 9.899519486890181 3.1043469092569116 0 0 0
170 2 24.940310987190525 8.999563265265344 4.663254156937103 0 0 0
79 2 1.5587685140417502 11.699432023841233 4.663253570977584 0 0 0
80 2 4.676307178362901 11.69943202092824 4.663253572749033 0 0 0
81 1 3.1175378493692647 12.599388602218994 3.1043466666802293 0 0 0
82 2 7.793845787676989 11.6994320154472 4.663253575620155 0 0 0
83 1 6.235076488850134 12.599388607454081 3.104346665655667 0 0 0
85 1 9.352615066637007 12.599388614073815 3.104346666745561 0 0 0
84 2 10.911384331778551 11.699432010805575 4.663253585449053 0 0 0
86 1 12.470153608101144 12.59938861519011 3.104346680493062 0 0 0
87 2 14.028922897844232 11.699432019897639 4.663253593373334 0 0 0
88 1 15.587692237866058 12.59938859915292 3.104346668221454 0 0 0
89 2 17.146461692754734 11.699432050591357 4.66325350945256 0 0 0
90 1 18.705231199870408 12.599388555161267 3.104346540059461 0 0 0
171 2 20.264000849471934 11.699432074118567 4.663253362548899 0 0 0
172 1 21.82277081743229 12.599388479034136 3.104346590793986 0 0 0
173 2 23.381540580788094 11.699432122096892 4.663253717241018 0 0 0
174 1 24.9403114116394 12.599388373763603 3.104347404233448 0 0 0
110 1 1.558768513211168 15.29925754351518 3.104346666770166 0 0 0
112 1 4.676307175910253 15.299257547106345 3.1043466663178787 0 0 0
113 2 3.117537850989331 14.399300965388223 4.663253571793935 0 0 0
115 1 7.793845785619536 15.299257553546322 3.104346665260686 0 0 0
116 2 6.235076491723024 14.399300961097635 4.663253573888158 0 0 0
119 2 9.352615065812856 14.399300955156287 4.663253579103701 0 0 0
118 1 10.911384336954454 15.299257558643884 3.104346672038303 0 0 0
120 2 12.47015360066885 14.39930095517849 4.66325359305012 0 0 0
122 1 14.028922899327732 15.299257552765782 3.104346684503131 0 0 0
123 2 15.587692253773744 14.399300976238232 4.6632535702878535 0 0 0
125 1 17.146461658182744 15.299257523758188 3.1043466168948988 0 0 0
126 2 18.705231224022274 14.39930100779818 4.663253420934742 0 0 0
182 1 20.26400090548783 15.299257463751252 3.104346496556965 0 0 0
183 2 21.822770599627603 14.399301028326333 4.663253434750835 0 0 0
185 1 23.381540975038966 15.299257372220659 3.1043469092560803 0 0 0
186 2 24.940310987191026 14.399301150597545 4.663254156927416 0 0 0
109 2 1.558768514022561 17.099169909179132 4.663253571107352 0 0 0
111 2 4.676307178368605 17.099169906260677 4.663253572741114 0 0 0
127 1 3.1175378493427233 17.999126487525224 3.1043466666775354 0 0 0
114 2 7.793845787689143 17.09916990078586 4.663253575648544 0 0 0
129 1 6.235076488839208 17.999126492762247 3.104346665653317 0 0 0
131 1 9.35261506663615 17.99912649939391 3.1043466667464683 0 0 0
117 2 10.91138433177492 17.099169896135678 4.663253585469258 0 0 0
133 1 12.470153608101954 17.999126500509075 3.1043466804932587 0 0 0
121 2 14.028922897845119 17.09916990523027 4.663253593395074 0 0 0
135 1 15.587692237865909 17.999126484467816 3.104346668221609 0 0 0
124 2 17.146461692755064 17.099169935923545 4.663253509474817 0 0 0
137 1 18.705231199867598 17.999126440476573 3.1043465400592427 0 0 0
181 2 20.26400084947562 17.099169959448826 4.663253362571043 0 0 0
184 2 23.381540580794773 17.09917000742558 4.663253717235972 0 0 0
187 1 21.82277081742034 17.999126364362574 3.1043465907940755 0 0 0
189 1 24.94031141163338 17.9991262590956 3.1043474042336743 0 0 0
139 1 1.5587685132517874 20.6989954288317 3.1043466667670234 0 0 0
128 2 3.1175378509795237 19.79903885074966 4.663253571800533 0 0 0
140 1 4.6763071759111865 20.698995432427036 3.104346666321116 0 0 0
130 2 6.235076491729625 19.799038846447086 4.663253573886328 0 0 0
141 1 7.793845785622758 20.698995438862152 3.1043466652620753 0 0 0
132 2 9.352615065805052 19.79903884049486 4.663253579088983 0 0 0
134 2 12.470153600668112 19.799038840519877 4.663253593047407 0 0 0
142 1 10.911384336960491 20.698995443958392 3.104346672037599 0 0 0
136 2 15.587692253774351 19.79903886158061 4.663253570282366 0 0 0
143 1 14.028922899327071 20.698995438084804 3.104346684503115 0 0 0
144 1 17.146461658186187 20.69899540907267 3.1043466168947944 0 0 0
138 2 18.705231224019354 19.799038893142683 4.663253420926876 0 0 0
191 1 20.26400090549131 20.698995349067822 3.1043464965566594 0 0 0
188 2 21.82277059962762 19.799038913661636 4.663253434756665 0 0 0
192 1 23.381540975031797 20.69899525755002 3.104346909256563 0 0 0
190 2 24.940310987196174 19.799039035926185 4.663254156923229 0 0 0
193 3 1.5587685139491618 22.49890779451625 1.545439762497889 0 0 0
194 3 4.6763071776422205 22.498907791417512 1.5454397598798055 0 0 0
195 3 7.793845788591411 22.498907786455415 1.5454397550894248 0 0 0
196 3 10.911384342408825 22.498907783518064 1.545439758678017 0 0 0
197 3 14.02892288712934 22.498907785649536 1.5454397734680918 0 0 0
198 3 17.146461587419967 22.498907804810802 1.5454397241689062 0 0 0
337 3 20.26400089959716 22.498907882944913 1.5454396491899536 0 0 0
338 3 23.381541285186913 22.498907987730046 1.5454401131944915 0 0 0
199 3 3.117537850658464 25.198776735991245 1.5454397615792057 0 0 0
200 3 6.235076490982502 25.198776731634023 1.5454397574570977 0 0 0
201 3 9.352615071090073 25.19877672712876 1.5454397546593777 0 0 0
202 3 12.470153610084736 25.19877672646262 1.5454397671175144 0 0 0
203 3 15.587692197900276 25.19877673364791 1.5454397634084491 0 0 0
204 3 18.705231126821236 25.198776776943923 1.5454396666855883 0 0 0
339 3 21.82277096118809 25.198776884809856 1.5454397717186352 0 0 0
340 3 24.940311743601303 25.19877693441788 1.5454406185371852 0 0 0
205 3 1.5587685139589158 27.89864567986439 1.5454397625691296 0 0 0
206 3 4.676307177619369 27.89864567675689 1.5454397599003395 0 0 0
207 3 7.7938457885980075 27.89864567179209 1.5454397550548422 0 0 0
208 3 10.911384342410772 27.898645668852147 1.545439758661368 0 0 0
209 3 14.02892288712982 27.89864567098154 1.5454397734647471 0 0 0
210 3 17.146461587416223 27.898645690145173 1.5454397241479132 0 0 0
341 3 20.264000899598454 27.898645768277618 1.5454396491721412 0 0 0
342 3 23.381541285186238 27.898645873061795 1.5454401131866837 0 0 0
241 3 3.117537850630696 30.59851462131207 1.5454397616700566 0 0 0
242 3 6.235076490976905 30.598514616971045 1.5454397574507932 0 0 0
243 3 9.352615071087532 30.59851461246416 1.5454397546562728 0 0 0
244 3 12.47015361008042 30.598514611792172 1.5454397671121187 0 0 0
245 3 15.58769219790128 30.598514618974928 1.5454397634009072 0 0 0
246 3 18.70523112681903 30.598514662276898 1.545439666675708 0 0 0
353 3 21.82277096118624 30.59851477014119 1.5454397717017572 0 0 0
354 3 24.940311743598514 30.598514819750818 1.5454406185201726 0 0 0
247 3 1.558768513971818 33.29838356514855 1.5454397625301255 0 0 0
248 3 4.676307177617546 33.29838356208045 1.5454397598947154 0 0 0
249 3 7.793845788603453 33.29838355712398 1.545439755052664 0 0 0
250 3 10.911384342405922 33.298383554190046 1.5454397586632003 0 0 0
251 3 14.028922887130248 33.29838355632016 1.5454397734473575 0 0 0
252 3 17.14646158741924 33.29838357548331 1.545439724142289 0 0 0
355 3 20.26400089959882 33.29838365361867 1.5454396491711648 0 0 0
356 3 23.381541285185502 33.29838375840249 1.5454401131846192 0 0 0
253 3 3.1175378506759515 35.99825250664815 1.5454397615799176 0 0 0
254 3 6.235076490982029 35.998252502317094 1.5454397574712018 0 0 0
255 3 9.352615071091527 35.998252497801424 1.5454397546912313 0 0 0
256 3 12.470153610079448 35.998252497133414 1.5454397671349562 0 0 0
257 3 15.587692197904117 35.998252504319176 1.5454397634236439 0 0 0
258 3 18.705231126821133 35.99825254762069 1.5454396667105892 0 0 0
357 3 21.822770961182336 35.99825265547996 1.5454397717387964 0 0 0
358 3 24.940311743601452 35.99825270508851 1.5454406185479255 0 0 0
259 3 1.5587685139453187 38.69812145050347 1.5454397624837457 0 0 0
260 3 4.676307177638471 38.69812144739586 1.5454397598861411 0 0 0
261 3 7.793845788592509 38.69812144244223 1.545439755073788 0 0 0
262 3 10.911384342405626 38.6981214395011 1.5454397586677802 0 0 0
263 3 14.02892288713071 38.69812144163422 1.5454397734439103 0 0 0
264 3 17.146461587427652 38.6981214607984 1.545439724162684 0 0 0
359 3 20.26400089959276 38.69812153893648 1.545439649193558 0 0 0
360 3 23.381541285187787 38.69812164371971 1.545440113196853 0 0 0
265 3 3.117537850682772 41.397990391972655 1.5454397615494557 0 0 0
266 3 6.235076490987456 41.39799038764299 1.5454397574686163 0 0 0
267 3 9.352615071085205 41.39799038313498 1.5454397546662144 0 0 0
268 3 12.470153610081825 41.3979903824685 1.5454397671118059 0 0 0
269 3 15.587692197903696 41.397990389651326 1.5454397634084351 0 0 0
270 3 18.705231126824632 41.39799043294563 1.5454396667075632 0 0 0
361 3 21.822770961178986 41.39799054081135 1.5454397717247912 0 0 0
362 3 24.940311743597857 41.397990590410394 1.5454406185274052 0 0 0
211 2 1.558768514019247 22.498907794509797 4.663253571065221 0 0 0
212 2 4.676307178365444 22.498907791584095 4.663253572710232 0 0 0
217 1 3.1175378493500374 23.398864372867585 3.104346666674908 0 0 0
213 2 7.793845787688351 22.498907786112976 4.663253575621153 0 0 0
219 1 6.235076488838103 23.398864378118027 3.1043466656537415 0 0 0
221 1 9.352615066636135 23.398864384742076 3.1043466667461197 0 0 0
214 2 10.911384331773952 22.498907781468812 4.663253585440248 0 0 0
223 1 12.470153608103965 23.39886438585474 3.1043466804928683 0 0 0
215 2 14.028922897845765 22.498907790561617 4.6632535933687 0 0 0
225 1 15.587692237862049 23.398864369818625 3.1043466682217615 0 0 0
216 2 17.14646169275593 22.498907821252832 4.663253509443925 0 0 0
227 1 18.70523119987339 23.398864325827457 3.1043465400596837 0 0 0
343 2 20.264000849468577 22.498907844780867 4.663253362551957 0 0 0
344 2 23.381540580793327 22.498907892757032 4.663253717233115 0 0 0
345 1 21.822770817431014 23.398864249702985 3.1043465907939107 0 0 0
347 1 24.940311411628578 23.398864144431823 3.104347404233062 0 0 0
230 1 1.5587685132203963 26.098733314121812 3.104346666760364 0 0 0
218 2 3.117537850974106 25.198776736068638 4.663253571752506 0 0 0
232 1 4.676307175919509 26.098733317753172 3.104346666322811 0 0 0
220 2 6.23507649173035 25.198776731767786 4.66325357391708 0 0 0
235 1 7.793845785621988 26.09873332420003 3.1043466652617884 0 0 0
222 2 9.352615065807333 25.198776725810752 4.663253579098579 0 0 0
224 2 12.470153600671946 25.198776725839835 4.663253593048941 0 0 0
238 1 10.911384336952741 26.098733329296582 3.1043466720378263 0 0 0
226 2 15.587692253771326 25.19877674689911 4.663253570284866 0 0 0
239 1 14.028922899328707 26.098733323416464 3.1043466845036654 0 0 0
233 1 17.146461658186375 26.098733294409985 3.104346616894425 0 0 0
228 2 18.70523122401999 25.198776778456406 4.663253420930943 0 0 0
350 1 20.264000905493774 26.098733234404754 3.104346496556805 0 0 0
346 2 21.8227705996276 25.19877679898697 4.663253434761697 0 0 0
352 1 23.381540975032497 26.09873314287792 3.104346909257264 0 0 0
348 2 24.94031098719267 25.19877692125502 4.663254156932167 0 0 0
229 2 1.558768514022431 27.898645679867975 4.663253570953537 0 0 0
231 2 4.676307178355666 27.89864567692692 4.663253572726513 0 0 0
331 1 3.117537849368711 28.798602258186104 3.1043466666758075 0 0 0
234 2 7.793845787684889 27.898645671445873 4.663253575646176 0 0 0
333 1 6.235076488847301 28.79860226344252 3.1043466656551075 0 0 0
334 1 9.352615066633852 28.798602270060027 3.1043466667453847 0 0 0
237 2 10.911384331779457 27.898645666802636 4.663253585455767 0 0 0
336 1 12.470153608096895 28.798602271180894 3.104346680492867 0 0 0
240 2 14.028922897844684 27.898645675892617 4.663253593373476 0 0 0
335 1 15.5876922378706 28.79860225514533 3.1043466682214547 0 0 0
236 2 17.146461692751142 27.898645706587672 4.663253509458556 0 0 0
332 1 18.705231199875282 28.798602211151454 3.104346540059165 0 0 0
349 2 20.264000849471664 27.898645730111884 4.6632533625679065 0 0 0
351 2 23.3815405807937 27.898645778087246 4.663253717245049 0 0 0
383 1 21.82277081742796 28.798602135030922 3.1043465907935763 0 0 0
384 1 24.94031141163032 28.798602029763032 3.104347404233481 0 0 0
271 1 1.5587685132233164 31.498471199494663 3.104346666761636 0 0 0
272 1 4.676307175962524 31.498471203111375 3.1043466663222175 0 0 0
273 2 3.11753785094905 30.59851462138975 4.6632535716613575 0 0 0
274 1 7.793845785623408 31.498471209533257 3.1043466652608624 0 0 0
275 2 6.235076491718978 30.598514617100378 4.663253573914593 0 0 0
277 2 9.352615065808212 30.598514611148207 4.6632535791009495 0 0 0
276 1 10.911384336958605 31.498471214621446 3.104346672038043 0 0 0
278 2 12.470153600667917 30.59851461116956 4.663253593056129 0 0 0
279 1 14.028922899329086 31.498471208753624 3.104346684503872 0 0 0
280 2 15.587692253772728 30.5985146322281 4.66325357029479 0 0 0
281 1 17.14646165819053 31.49847117973704 3.104346616895153 0 0 0
282 2 18.705231224016007 30.598514663792113 4.663253420943959 0 0 0
363 1 20.264000905495532 31.498471119726222 3.1043464965567344 0 0 0
364 2 21.82277059962608 30.598514684319394 4.66325343477408 0 0 0
365 1 23.38154097504 31.498471028196064 3.104346909256986 0 0 0
366 2 24.940310987191765 30.598514806586024 4.6632541569501305 0 0 0
283 2 1.5587685140361556 33.298383565152065 4.663253570992308 0 0 0
284 2 4.676307178355045 33.298383562249434 4.663253572743557 0 0 0
285 1 3.1175378493688752 34.19834014351505 3.1043466666750064 0 0 0
286 2 7.793845787689509 33.298383556782575 4.663253575646999 0 0 0
287 1 6.235076488839471 34.19834014874799 3.104346665656579 0 0 0
289 1 9.352615066634018 34.19834015536344 3.1043466667456614 0 0 0
288 2 10.911384331773437 33.29838355213983 4.6632535854559425 0 0 0
290 1 12.470153608103049 34.19834015648458 3.104346680492416 0 0 0
291 2 14.028922897846625 33.298383561228896 4.6632535933893005 0 0 0
292 1 15.587692237863259 34.19834014044377 3.1043466682215946 0 0 0
293 2 17.146461692753416 33.29838359192329 4.663253509464839 0 0 0
294 1 18.70523119987467 34.19834009645337 3.104346540058787 0 0 0
367 2 20.264000849473355 33.298383615453105 4.663253362570067 0 0 0
368 1 21.822770817424768 34.19834002033679 3.104346590794549 0 0 0
369 2 23.38154058079038 33.29838366342944 4.6632537172479065 0 0 0
370 1 24.940311411639446 34.198339915068935 3.1043474042329375 0 0 0
295 1 1.5587685132008255 36.89820908481243 3.1043466667642186 0 0 0
296 1 4.6763071759237524 36.898209088439174 3.104346666318437 0 0 0
297 2 3.117537850982686 35.99825250672514 4.6632535717379175 0 0 0
298 1 7.793845785613049 36.89820909487597 3.104346665261576 0 0 0
299 2 6.23507649173313 35.9982525024367 4.6632535738957825 0 0 0
301 2 9.352615065810319 35.99825249648686 4.663253579066904 0 0 0
300 1 10.911384336960946 36.89820909996873 3.104346672038526 0 0 0
302 2 12.470153600664164 35.99825249651184 4.663253593028664 0 0 0
303 1 14.028922899327256 36.898209094098476 3.1043466845029326 0 0 0
304 2 15.58769225377759 35.99825251757185 4.663253570273389 0 0 0
305 1 17.146461658185178 36.898209065075996 3.104346616895246 0 0 0
306 2 18.705231224017872 35.99825254913591 4.663253420904329 0 0 0
371 1 20.26400090549729 36.8982090050624 3.1043464965562935 0 0 0
372 2 21.822770599623496 35.99825256965616 4.6632534347416446 0 0 0
373 1 23.38154097503858 36.8982089135458 3.104346909257143 0 0 0
374 2 24.94031098719081 35.99825269192574 4.663254156917558 0 0 0
307 2 1.5587685140099203 38.698121450515224 4.66325357104856 0 0 0
308 2 4.676307178365061 38.69812144757443 4.663253572733373 0 0 0
309 1 3.1175378493591253 39.598078028863505 3.104346666677366 0 0 0
310 2 7.793845787688887 38.698121442098184 4.663253575629698 0 0 0
311 1 6.235076488841948 39.59807803408866 3.104346665654105 0 0 0
313 1 9.35261506663352 39.598078040709204 3.104346666746109 0 0 0
312 2 10.911384331771833 38.6981214374512 4.663253585457807 0 0 0
314 1 12.470153608111378 39.59807804182958 3.1043466804932978 0 0 0
315 2 14.028922897845593 38.69812144654644 4.663253593389018 0 0 0
316 1 15.58769223785109 39.598078025793555 3.104346668221545 0 0 0
317 2 17.146461692762475 38.69812147724005 4.663253509448032 0 0 0
318 1 18.705231199873037 39.59807798179545 3.1043465400591623 0 0 0
375 2 20.26400084946684 38.69812150077233 4.663253362544323 0 0 0
376 1 21.82277081743086 39.59807790568086 3.104346590794397 0 0 0
377 2 23.3815405807935 38.69812154874534 4.6632537172397965 0 0 0
378 1 24.940311411632358 39.5980778004203 3.1043474042331756 0 0 0
319 1 1.5587685132426592 42.297946970179076 3.1043466667698882 0 0 0
320 1 4.676307175905985 42.297946973770436 3.1043466663201347 0 0 0
321 2 3.1175378509741125 41.397990392050254 4.663253571796275 0 0 0
322 1 7.793845785623095 42.29794698018871 3.104346665261308 0 0 0
323 2 6.235076491733978 41.39799038776899 4.663253573893117 0 0 0
325 2 9.352615065805596 41.397990381817955 4.66325357908951 0 0 0
324 1 10.911384336957747 42.29794698528411 3.1043466720376265 0 0 0
326 2 12.47015360066868 41.397990381843876 4.663253593054814 0 0 0
327 1 14.028922899329507 42.29794697940494 3.1043466845036507 0 0 0
328 2 15.58769225377627 41.3979904029037 4.663253570289276 0 0 0
329 1 17.146461658176655 42.297946950402164 3.1043466168954144 0 0 0
330 2 18.705231224020775 41.39799043445914 4.663253420910839 0 0 0
379 1 20.264000905503288 42.29794689038781 3.104346496556374 0 0 0
380 2 21.822770599618053 41.39799045498686 4.663253434754017 0 0 0
381 1 23.381540975043237 42.29794679887334 3.1043469092563813 0 0 0
382 2 24.94031098719255 41.397990577246254 4.663254156933737 0 0 0
385 3 1.5587685139197551 44.09785933582855 1.545439762420716 0 0 0
386 3 4.676307177667387 44.09785933272718 1.5454397598343064 0 0 0
387 3 7.7938457885876264 44.09785932777597 1.5454397550901469 0 0 0
388 3 10.911384342411417 44.097859324841274 1.5454397586724402 0 0 0
389 3 14.028922887127921 44.09785932697252 1.545439773467551 0 0 0
390 3 17.14646158742193 44.09785934613265 1.545439724164028 0 0 0
529 3 20.26400089959756 44.097859424264655 1.5454396492022793 0 0 0
530 3 23.3815412851794 44.09785952905083 1.5454401131985713 0 0 0
391 3 3.117537850679931 46.797728277315464 1.5454397614188946 0 0 0
392 3 6.235076490996812 46.79772827296142 1.5454397574547565 0 0 0
393 3 9.352615071090348 46.79772826845907 1.54543975466489 0 0 0
394 3 12.470153610081676 46.79772826778392 1.5454397671244149 0 0 0
395 3 15.587692197899479 46.79772827496568 1.5454397634045063 0 0 0
396 3 18.705231126819523 46.79772831826065 1.5454396666797816 0 0 0
531 3 21.82277096118557 46.79772842612403 1.5454397717185697 0 0 0
532 3 24.940311743599256 46.79772847574237 1.545440618520328 0 0 0
397 3 1.5587685139339293 49.497597221198184 1.5454397624185818 0 0 0
398 3 4.6763071776391465 49.49759721808259 1.54543975987987 0 0 0
399 3 7.793845788598702 49.49759721311521 1.5454397550826564 0 0 0
400 3 10.911384342402952 49.497597210173936 1.5454397586724797 0 0 0
401 3 14.028922887128545 49.49759721230683 1.545439773454482 0 0 0
402 3 17.14646158741634 49.49759723146745 1.5454397241429418 0 0 0
533 3 20.264000899599676 49.49759730960274 1.5454396491580598 0 0 0
534 3 23.381541285188337 49.49759741438549 1.545440113182117 0 0 0
403 3 3.1175378506622637 52.19746616265141 1.5454397616025106 0 0 0
404 3 6.235076490985927 52.197466158296 1.5454397574731042 0 0 0
405 3 9.35261507108985 52.19746615378762 1.54543975467422 0 0 0
406 3 12.470153610082075 52.19746615311998 1.545439767132302 0 0 0
407 3 15.587692197899303 52.19746616030706 1.5454397634200614 0 0 0
408 3 18.705231126818603 52.19746620360612 1.5454396666897785 0 0 0
535 3 21.82277096118928 52.197466311470784 1.5454397717260704 0 0 0
536 3 24.940311743599327 52.197466361076316 1.5454406185537732 0 0 0
409 3 1.5587685139744343 54.8973351064911 1.5454397625339056 0 0 0
410 3 4.676307177616935 54.897335103397744 1.5454397598895966 0 0 0
411 3 7.7938457885989205 54.89733509842892 1.545439755055872 0 0 0
412 3 10.911384342406672 54.89733509549361 1.5454397586638968 0 0 0
413 3 14.028922887132524 54.89733509762976 1.5454397734578276 0 0 0
414 3 17.146461587417367 54.897335116793975 1.5454397241597009 0 0 0
537 3 20.26400089959799 54.897335194928246 1.5454396491768752 0 0 0
538 3 23.381541285187026 54.897335299711465 1.5454401131947875 0 0 0
477 3 3.117537850644865 57.597204047982565 1.5454397615776847 0 0 0
479 3 6.235076490979452 57.59720404362806 1.545439757441634 0 0 0
481 3 9.35261507109268 57.59720403912103 1.5454397546437368 0 0 0
482 3 12.470153610088259 57.59720403845179 1.5454397671126636 0 0 0
484 3 15.587692197903369 57.59720404563668 1.5454397634130435 0 0 0
486 3 18.705231126817697 57.597204088936586 1.545439666685815 0 0 0
560 3 21.822770961190354 57.59720419679926 1.545439771721944 0 0 0
562 3 24.9403117435976 57.597204246408495 1.5454406185433087 0 0 0
475 3 1.5587685139656988 60.29707299182974 1.5454397625811793 0 0 0
476 3 4.676307177610417 60.29707298873863 1.5454397599392322 0 0 0
478 3 7.793845788596546 60.29707298378243 1.5454397550455496 0 0 0
480 3 10.91138434240671 60.29707298083785 1.545439758657923 0 0 0
483 3 14.028922887129351 60.29707298296355 1.5454397734535745 0 0 0
485 3 17.146461587417352 60.29707300212358 1.545439724150821 0 0 0
559 3 20.26400089959715 60.297073080261086 1.5454396491697557 0 0 0
561 3 23.381541285189087 60.29707318504279 1.5454401131931539 0 0 0
487 3 3.1175378506390805 62.99694193329417 1.5454397616500604 0 0 0
488 3 6.235076490979808 62.99694192895593 1.545439757464841 0 0 0
489 3 9.35261507108809 62.996941924451285 1.5454397546597591 0 0 0