LAMMPS data file via write_data, version 2 Aug 2023, timestep = 1998, units = metal

9520 atoms
3 atom types

0 311.7540047635934 xlo xhi
0 86.39582199684538 ylo yhi
0 50 zlo zhi
0 0 0 xy xz yz

Masses

1 95.94
2 32.065
3 32.065

Atoms # atomic

1 3 1.5587691960968955 0.8999565138607571 1.5454399209774627 0 0 0
2 3 4.676309243732233 0.899956513860525 1.5454399209775425 0 0 0
3 3 7.793849291367848 0.8999565138605075 1.5454399209776706 0 0 0
4 3 10.911389339003783 0.8999565138605501 1.5454399209776415 0 0 0
5 3 14.028929386639767 0.8999565138606278 1.5454399209776148 0 0 0
6 3 17.14646943427567 0.8999565138605824 1.5454399209776324 0 0 0
178 3 20.26400948191162 0.899956513860567 1.5454399209776783 0 0 0
179 3 23.381549529547488 0.8999565138606006 1.545439920977614 0 0 0
7 3 3.1175392199145127 3.599825951262161 1.545439920977509 0 0 0
8 3 6.23507926755003 3.5998259512619817 1.5454399209775682 0 0 0
9 3 9.352619315185867 3.599825951261982 1.5454399209776548 0 0 0
10 3 12.470159362821816 3.599825951262048 1.5454399209775738 0 0 0
11 3 15.58769941045768 3.5998259512621162 1.5454399209775618 0 0 0
180 3 18.705239458093697 3.5998259512620794 1.5454399209775875 0 0 0
181 3 21.82277950572958 3.599825951262078 1.5454399209775873 0 0 0
182 3 24.940319553365413 3.599825951262033 1.5454399209775915 0 0 0
12 3 1.5587691960964365 6.29969538866344 1.5454399209774743 0 0 0
13 3 4.6763092437323515 6.299695388663374 1.5454399209775957 0 0 0
14 3 7.7938492913679385 6.299695388663483 1.5454399209776137 0 0 0
15 3 10.911389339003907 6.299695388663539 1.5454399209775505 0 0 0
16 3 14.028929386639788 6.299695388663548 1.5454399209775744 0 0 0
17 3 17.146469434275698 6.29969538866356 1.5454399209775613 0 0 0
183 3 20.2640094819116 6.299695388663504 1.5454399209775784 0 0 0
184 3 23.381549529547524 6.299695388663532 1.5454399209775889 0 0 0
18 3 3.117539219914886 8.999564826064653 1.5454399209776144 0 0 0
19 3 6.235079267550151 8.999564826064875 1.5454399209775864 0 0 0
20 3 9.3526193151859 8.999564826064963 1.5454399209775787 0 0 0
21 3 12.470159362821809 8.999564826064912 1.5454399209775447 0 0 0
22 3 15.587699410457708 8.999564826064988 1.5454399209775935 0 0 0
185 3 18.705239458093658 8.999564826064912 1.5454399209775838 0 0 0
186 3 21.82277950572954 8.999564826064908 1.545439920977559 0 0 0
187 3 24.94031955336541 8.999564826064912 1.545439920977593 0 0 0
23 3 1.558769196096996 11.699434263466364 1.5454399209777248 0 0 0
24 3 4.676309243732703 11.699434263466182 1.5454399209775418 0 0 0
25 3 7.793849291367883 11.699434263466378 1.5454399209775411 0 0 0
26 3 10.911389339003883 11.69943426346631 1.5454399209775649 0 0 0
27 3 14.02892938663979 11.699434263466387 1.5454399209775824 0 0 0
28 3 17.146469434275733 11.699434263466351 1.5454399209775895 0 0 0
188 3 20.264009481911604 11.699434263466276 1.545439920977587 0 0 0
189 3 23.381549529547463 11.699434263466284 1.5454399209775538 0 0 0
29 3 3.1175392199147276 14.399303700867781 1.545439920977513 0 0 0
30 3 6.235079267550013 14.399303700867767 1.5454399209775207 0 0 0
31 3 9.352619315185756 14.39930370086776 1.5454399209775915 0 0 0
32 3 12.470159362821756 14.399303700867783 1.545439920977552 0 0 0
33 3 15.58769941045777 14.399303700867796 1.545439920977597 0 0 0
190 3 18.705239458093686 14.399303700867781 1.545439920977596 0 0 0
191 3 21.822779505729578 14.399303700867748 1.5454399209775642 0 0 0
192 3 24.94031955336544 14.39930370086774 1.5454399209775624 0 0 0
34 3 1.5587691960967824 17.099173138269414 1.5454399209775713 0 0 0
35 3 4.676309243732457 17.09917313826906 1.5454399209774767 0 0 0
36 3 7.793849291367809 17.099173138269187 1.5454399209775613 0 0 0
37 3 10.91138933900383 17.099173138269098 1.5454399209776168 0 0 0
38 3 14.02892938663979 17.099173138269155 1.545439920977575 0 0 0
39 3 17.14646943427571 17.099173138269148 1.5454399209775673 0 0 0
193 3 20.264009481911604 17.09917313826914 1.5454399209775749 0 0 0
194 3 23.381549529547453 17.099173138269194 1.5454399209775522 0 0 0
40 3 3.1175392199144785 19.799042575670864 1.5454399209775316 0 0 0
41 3 6.235079267549918 19.7990425756704 1.5454399209775165 0 0 0
42 3 9.352619315185743 19.7990425756705 1.5454399209776133 0 0 0
43 3 12.470159362821768 19.799042575670583 1.5454399209775762 0 0 0
44 3 15.5876994104577 19.799042575670583 1.5454399209775542 0 0 0
195 3 18.705239458093676 19.799042575670548 1.5454399209775684 0 0 0
196 3 21.822779505729578 19.799042575670597 1.5454399209775558 0 0 0
197 3 24.94031955336544 19.799042575670533 1.5454399209775342 0 0 0
133 3 1.5587691960963703 22.49891201307215 1.5454399209774596 0 0 0
134 3 4.676309243732144 22.498912013071838 1.5454399209775667 0 0 0
135 3 7.793849291367863 22.498912013071877 1.545439920977604 0 0 0
136 3 10.911389339003838 22.498912013071863 1.5454399209775944 0 0 0
137 3 14.028929386639788 22.498912013071973 1.5454399209775695 0 0 0
138 3 17.14646943427568 22.498912013071994 1.5454399209775775 0 0 0
238 3 20.26400948191161 22.498912013071994 1.5454399209775782 0 0 0
239 3 23.38154952954748 22.49891201307204 1.5454399209775476 0 0 0
139 3 3.117539219914525 25.198781450473557 1.545439920977506 0 0 0
140 3 6.235079267550016 25.198781450473255 1.5454399209774998 0 0 0
141 3 9.352619315185843 25.19878145047335 1.545439920977635 0 0 0
142 3 12.470159362821809 25.19878145047338 1.5454399209775513 0 0 0
143 3 15.587699410457741 25.198781450473405 1.545439920977594 0 0 0
240 3 18.705239458093647 25.19878145047338 1.545439920977591 0 0 0
241 3 21.8227795057296 25.19878145047339 1.5454399209776037 0 0 0
242 3 24.94031955336541 25.19878145047338 1.5454399209775762 0 0 0
144 3 1.5587691960965315 27.89865088787503 1.5454399209774716 0 0 0
145 3 4.676309243732319 27.89865088787474 1.5454399209774883 0 0 0
146 3 7.793849291368003 27.89865088787487 1.5454399209775533 0 0 0
147 3 10.911389339003849 27.898650887874883 1.5454399209775658 0 0 0
148 3 14.02892938663979 27.898650887874904 1.5454399209775944 0 0 0
149 3 17.14646943427572 27.898650887874904 1.545439920977587 0 0 0
243 3 20.26400948191162 27.89865088787485 1.5454399209775598 0 0 0
244 3 23.38154952954747 27.898650887874833 1.5454399209775775 0 0 0
45 2 1.5587691960969552 0.8999565138607812 4.663253412355876 0 0 0
46 2 4.676309243732206 0.8999565138604886 4.663253412355773 0 0 0
47 1 3.1175392199146024 1.7999129715865039 3.1043466666666504 0 0 0
48 2 7.7938492913678346 0.8999565138605575 4.663253412355798 0 0 0
49 1 6.235079267549981 1.7999129715862492 3.1043466666667032 0 0 0
51 1 9.352619315185809 1.7999129715862017 3.1043466666667188 0 0 0
50 2 10.911389339003833 0.8999565138606199 4.663253412355763 0 0 0
53 1 12.470159362821766 1.7999129715862845 3.1043466666666744 0 0 0
52 2 14.028929386639799 0.8999565138606925 4.663253412355737 0 0 0
55 1 15.58769941045772 1.7999129715863653 3.10434666666668 0 0 0
54 2 17.14646943427567 0.899956513860589 4.663253412355782 0 0 0
198 1 18.705239458093676 1.7999129715862743 3.1043466666666983 0 0 0
199 2 20.26400948191167 0.8999565138605657 4.663253412355768 0 0 0
200 1 21.822779505729564 1.7999129715863016 3.1043466666666824 0 0 0
201 2 23.38154952954747 0.8999565138605302 4.663253412355756 0 0 0
202 1 24.940319553365423 1.7999129715862374 3.104346666666682 0 0 0
56 1 1.5587691960964003 4.499782408987669 3.104346666666593 0 0 0
57 1 4.676309243732297 4.499782408987739 3.104346666666751 0 0 0
58 2 3.1175392199144007 3.599825951262139 4.663253412355789 0 0 0
59 1 7.793849291367914 4.499782408987691 3.104346666666721 0 0 0
60 2 6.235079267550055 3.5998259512619484 4.663253412355884 0 0 0
62 2 9.352619315185903 3.599825951262006 4.663253412355775 0 0 0
61 1 10.911389339003888 4.4997824089877465 3.1043466666666886 0 0 0
64 2 12.4701593628218 3.5998259512620514 4.6632534123558065 0 0 0
63 1 14.028929386639739 4.499782408987762 3.104346666666693 0 0 0
66 2 15.5876994104577 3.5998259512621207 4.663253412355805 0 0 0
65 1 17.146469434275687 4.499782408987753 3.1043466666666744 0 0 0
203 2 18.705239458093686 3.5998259512620656 4.663253412355786 0 0 0
204 1 20.26400948191162 4.499782408987786 3.1043466666666997 0 0 0
205 2 21.822779505729578 3.5998259512620243 4.663253412355788 0 0 0
206 1 23.381549529547442 4.499782408987749 3.1043466666666886 0 0 0
207 2 24.940319553365413 3.5998259512620203 4.663253412355768 0 0 0
67 2 1.5587691960964511 6.299695388663402 4.663253412355759 0 0 0
68 2 4.676309243732263 6.2996953886634435 4.6632534123558615 0 0 0
69 1 3.117539219914445 7.199651846388935 3.1043466666666553 0 0 0
70 2 7.7938492913680335 6.299695388663508 4.66325341235581 0 0 0
71 1 6.2350792675500815 7.1996518463892 3.104346666666749 0 0 0
73 1 9.352619315185937 7.199651846389183 3.1043466666666473 0 0 0
72 2 10.911389339003888 6.299695388663587 4.663253412355777 0 0 0
75 1 12.470159362821859 7.199651846389183 3.1043466666666735 0 0 0
74 2 14.028929386639788 6.299695388663542 4.663253412355785 0 0 0
77 1 15.587699410457752 7.199651846389189 3.1043466666666846 0 0 0
76 2 17.146469434275698 6.299695388663542 4.6632534123557665 0 0 0
208 1 18.705239458093658 7.199651846389166 3.1043466666666797 0 0 0
209 2 20.2640094819116 6.299695388663548 4.6632534123557985 0 0 0
210 1 21.82277950572956 7.199651846389196 3.1043466666666797 0 0 0
211 2 23.381549529547488 6.299695388663536 4.663253412355791 0 0 0
212 1 24.94031955336544 7.199651846389168 3.1043466666666886 0 0 0
78 1 1.558769196096794 9.899521283790282 3.1043466666667294 0 0 0
79 1 4.676309243732548 9.899521283790586 3.1043466666667383 0 0 0
80 2 3.117539219914829 8.999564826064635 4.663253412355758 0 0 0
81 1 7.793849291367969 9.899521283790614 3.104346666666665 0 0 0
82 2 6.23507926755022 8.999564826064923 4.663253412355892 0 0 0
84 2 9.352619315185917 8.99956482606496 4.663253412355716 0 0 0
83 1 10.911389339003883 9.89952128379054 3.104346666666672 0 0 0
86 2 12.470159362821798 8.999564826064915 4.663253412355804 0 0 0
85 1 14.028929386639746 9.89952128379057 3.1043466666666886 0 0 0
88 2 15.587699410457711 8.999564826064985 4.663253412355794 0 0 0
87 1 17.14646943427572 9.899521283790552 3.1043466666666997 0 0 0
213 2 18.705239458093736 8.999564826064912 4.663253412355803 0 0 0
214 1 20.26400948191162 9.899521283790548 3.104346666666691 0 0 0
215 2 21.822779505729564 8.999564826064905 4.6632534123558065 0 0 0
216 1 23.381549529547463 9.89952128379057 3.1043466666666886 0 0 0
217 2 24.94031955336541 8.999564826064885 4.663253412355801 0 0 0
89 2 1.5587691960969452 11.699434263466346 4.663253412355667 0 0 0
90 2 4.676309243732735 11.69943426346625 4.663253412355919 0 0 0
91 1 3.1175392199149625 12.59939072119208 3.104346666666709 0 0 0
92 2 7.793849291367929 11.699434263466399 4.663253412355796 0 0 0
93 1 6.235079267550225 12.599390721192151 3.1043466666666837 0 0 0
95 1 9.352619315185843 12.599390721191957 3.104346666666652 0 0 0
94 2 10.911389339003845 11.69943426346631 4.663253412355777 0 0 0
97 1 12.470159362821807 12.599390721192032 3.1043466666666917 0 0 0
96 2 14.028929386639769 11.69943426346638 4.663253412355813 0 0 0
99 1 15.58769941045776 12.599390721191991 3.1043466666666997 0 0 0
98 2 17.146469434275744 11.699434263466324 4.663253412355813 0 0 0
218 1 18.705239458093686 12.599390721192005 3.1043466666667046 0 0 0
219 2 20.26400948191162 11.699434263466262 4.663253412355827 0 0 0
220 1 21.82277950572952 12.599390721191964 3.1043466666666886 0 0 0
221 2 23.381549529547488 11.69943426346631 4.663253412355818 0 0 0
222 1 24.94031955336541 12.599390721191972 3.1043466666666886 0 0 0
100 1 1.5587691960966228 15.299260158593388 3.104346666666644 0 0 0
101 1 4.676309243732382 15.299260158593476 3.1043466666666624 0 0 0
102 2 3.1175392199146357 14.399303700867932 4.663253412355799 0 0 0
103 1 7.793849291367824 15.299260158593416 3.1043466666666775 0 0 0
104 2 6.2350792675500175 14.399303700867783 4.663253412355822 0 0 0
106 2 9.352619315185736 14.39930370086774 4.663253412355732 0 0 0
105 1 10.911389339003758 15.299260158593333 3.104346666666697 0 0 0
108 2 12.470159362821756 14.399303700867776 4.663253412355815 0 0 0
107 1 14.02892938663973 15.299260158593368 3.1043466666666935 0 0 0
110 2 15.587699410457729 14.399303700867783 4.663253412355805 0 0 0
109 1 17.146469434275698 15.299260158593388 3.104346666666706 0 0 0
223 2 18.705239458093697 14.399303700867781 4.663253412355801 0 0 0
224 1 20.264009481911604 15.299260158593368 3.1043466666666863 0 0 0
225 2 21.822779505729542 14.399303700867776 4.663253412355775 0 0 0
226 1 23.381549529547463 15.299260158593388 3.104346666666663 0 0 0
227 2 24.940319553365413 14.399303700867735 4.663253412355798 0 0 0
111 2 1.5587691960967591 17.09917313826929 4.6632534123557114 0 0 0
112 2 4.676309243732444 17.09917313826906 4.663253412355881 0 0 0
113 1 3.117539219914732 17.999129595995047 3.104346666666673 0 0 0
114 2 7.79384929136781 17.099173138269126 4.663253412355817 0 0 0
115 1 6.235079267550036 17.99912959599476 3.1043466666666966 0 0 0
117 1 9.352619315185766 17.999129595994663 3.104346666666706 0 0 0
116 2 10.91138933900383 17.09917313826914 4.663253412355791 0 0 0
119 1 12.470159362821809 17.999129595994773 3.104346666666691 0 0 0
118 2 14.02892938663979 17.099173138269194 4.66325341235581 0 0 0
121 1 15.58769941045776 17.999129595994766 3.1043466666666824 0 0 0
120 2 17.146469434275726 17.099173138269194 4.6632534123558065 0 0 0
228 1 18.705239458093647 17.99912959599476 3.104346666666689 0 0 0
229 2 20.26400948191168 17.099173138269133 4.663253412355791 0 0 0
230 1 21.82277950572954 17.99912959599476 3.1043466666666966 0 0 0
231 2 23.38154952954748 17.099173138269208 4.6632534123558145 0 0 0
232 1 24.940319553365473 17.99912959599478 3.1043466666666886 0 0 0
122 1 1.558769196096516 20.698999033396472 3.104346666666722 0 0 0
123 1 4.6763092437323 20.698999033396245 3.104346666666708 0 0 0
124 2 3.117539219914469 19.799042575670818 4.66325341235586 0 0 0
125 1 7.7938492913677555 20.698999033396102 3.104346666666708 0 0 0
126 2 6.2350792675499065 19.79904257567041 4.663253412355905 0 0 0
128 2 9.35261931518573 19.799042575670505 4.663253412355814 0 0 0
127 1 10.91138933900378 20.69899903339612 3.104346666666702 0 0 0
130 2 12.470159362821757 19.799042575670597 4.663253412355822 0 0 0
129 1 14.02892938663972 20.69899903339614 3.104346666666699 0 0 0
132 2 15.587699410457729 19.799042575670562 4.663253412355804 0 0 0
131 1 17.14646943427568 20.698999033396134 3.1043466666666744 0 0 0
233 2 18.705239458093697 19.799042575670548 4.6632534123558065 0 0 0
234 1 20.264009481911582 20.698999033396223 3.104346666666695 0 0 0
235 2 21.822779505729578 19.799042575670597 4.663253412355846 0 0 0
236 1 23.38154952954749 20.698999033396237 3.104346666666689 0 0 0
237 2 24.940319553365462 19.79904257567054 4.663253412355852 0 0 0
150 2 1.5587691960964087 22.498912013072232 4.663253412355981 0 0 0
151 2 4.67630924373217 22.498912013071863 4.6632534123558225 0 0 0
152 1 3.1175392199143435 23.398868470797776 3.1043466666666926 0 0 0
153 2 7.7938492913678346 22.498912013071863 4.66325341235579 0 0 0
154 1 6.235079267549935 23.398868470797503 3.104346666666684 0 0 0
156 1 9.352619315185818 23.398868470797446 3.1043466666667023 0 0 0
155 2 10.911389339003852 22.498912013071863 4.663253412355801 0 0 0
158 1 12.470159362821818 23.39886847079756 3.1043466666666863 0 0 0
157 2 14.028929386639788 22.498912013071973 4.663253412355808 0 0 0
160 1 15.587699410457722 23.398868470797556 3.1043466666666966 0 0 0
159 2 17.14646943427571 22.498912013071973 4.663253412355809 0 0 0
245 1 18.705239458093658 23.39886847079764 3.1043466666666997 0 0 0
246 2 20.26400948191161 22.498912013072008 4.66325341235581 0 0 0
247 1 21.82277950572952 23.398868470797613 3.1043466666666917 0 0 0
248 2 23.38154952954748 22.498912013071994 4.663253412355835 0 0 0
249 1 24.940319553365413 23.398868470797613 3.104346666666707 0 0 0
161 1 1.558769196096506 26.098737908199247 3.1043466666666832 0 0 0
162 1 4.676309243732344 26.098737908199055 3.1043466666666637 0 0 0
163 2 3.1175392199145455 25.198781450473557 4.663253412355836 0 0 0
164 1 7.793849291367869 26.098737908198963 3.1043466666666695 0 0 0
165 2 6.235079267549967 25.19878145047331 4.663253412355827 0 0 0
167 2 9.352619315185837 25.198781450473337 4.663253412355758 0 0 0
166 1 10.911389339003838 26.098737908199013 3.1043466666666903 0 0 0
169 2 12.470159362821805 25.198781450473366 4.663253412355796 0 0 0
168 1 14.028929386639797 26.098737908199045 3.1043466666666775 0 0 0
171 2 15.587699410457722 25.198781450473405 4.6632534123557905 0 0 0
170 1 17.14646943427571 26.098737908199112 3.104346666666702 0 0 0
250 2 18.705239458093658 25.19878145047338 4.663253412355771 0 0 0
251 1 20.26400948191163 26.09873790819907 3.104346666666667 0 0 0
252 2 21.82277950572954 25.19878145047339 4.663253412355774 0 0 0
253 1 23.38154952954751 26.098737908199094 3.1043466666667014 0 0 0
254 2 24.940319553365462 25.19878145047342 4.663253412355785 0 0 0
172 2 1.5587691960965744 27.898650887874986 4.663253412355975 0 0 0
173 2 4.6763092437323515 27.89865088787476 4.663253412355874 0 0 0
256 2 23.38154952954747 27.898650887874904 4.6632534123558065 0 0 0
174 2 7.793849291368018 27.89865088787485 4.663253412355814 0 0 0
255 2 20.26400948191162 27.898650887874904 4.663253412355791 0 0 0
177 2 17.146469434275698 27.89865088787492 4.663253412355828 0 0 0
175 2 10.911389339003858 27.898650887874854 4.663253412355795 0 0 0
176 2 14.02892938663979 27.898650887874823 4.663253412355807 0 0 0
257 3 3.1175392199146628 30.598520325276127 1.5454399209775627 0 0 0
258 3 6.235079267550164 30.598520325276183 1.5454399209775596 0 0 0
259 3 9.352619315185834 30.598520325276237 1.5454399209775684 0 0 0
260 3 12.470159362821759 30.598520325276304 1.5454399209775673 0 0 0
261 3 15.587699410457777 30.598520325276223 1.5454399209775846 0 0 0
427 3 18.705239458093658 30.59852032527621 1.5454399209775505 0 0 0
428 3 21.822779505729503 30.598520325276276 1.5454399209775584 0 0 0
429 3 24.94031955336541 30.59852032527625 1.5454399209775973 0 0 0
262 3 1.5587691960968122 33.29838976267742 1.5454399209775975 0 0 0
263 3 4.6763092437325104 33.298389762677694 1.545439920977496 0 0 0
264 3 7.7938492913680975 33.298389762677665 1.5454399209776026 0 0 0
265 3 10.911389339003852 33.298389762677694 1.5454399209775815 0 0 0
266 3 14.028929386639748 33.298389762677715 1.5454399209775649 0 0 0
267 3 17.14646943427572 33.29838976267768 1.5454399209775573 0 0 0
430 3 20.2640094819116 33.29838976267768 1.5454399209775982 0 0 0
431 3 23.381549529547414 33.29838976267759 1.5454399209775835 0 0 0
268 3 3.117539219914543 35.99825920007902 1.5454399209776273 0 0 0
269 3 6.2350792675500895 35.99825920007912 1.545439920977554 0 0 0
270 3 9.352619315185903 35.99825920007917 1.5454399209776049 0 0 0
271 3 12.470159362821786 35.9982592000792 1.5454399209775578 0 0 0
272 3 15.587699410457722 35.99825920007913 1.5454399209775767 0 0 0
432 3 18.705239458093647 35.99825920007912 1.5454399209776026 0 0 0
433 3 21.822779505729578 35.99825920007909 1.545439920977568 0 0 0
434 3 24.940319553365384 35.99825920007906 1.5454399209775886 0 0 0
273 3 1.55876919609733 38.698128637480316 1.545439920977572 0 0 0
274 3 4.676309243732544 38.698128637480565 1.5454399209775023 0 0 0
275 3 7.793849291368067 38.69812863748048 1.5454399209776293 0 0 0
276 3 10.911389339003838 38.698128637480565 1.545439920977597 0 0 0
277 3 14.02892938663979 38.698128637480586 1.5454399209775664 0 0 0
278 3 17.146469434275698 38.698128637480565 1.5454399209775442 0 0 0
435 3 20.26400948191162 38.69812863748058 1.5454399209775735 0 0 0
436 3 23.381549529547463 38.698128637480536 1.54543992097753 0 0 0
279 3 3.1175392199147858 41.39799807488196 1.545439920977632 0 0 0
280 3 6.235079267550091 41.397998074882146 1.5454399209775387 0 0 0
281 3 9.352619315185857 41.3979980748821 1.5454399209776568 0 0 0
282 3 12.470159362821839 41.397998074881976 1.5454399209775722 0 0 0
283 3 15.587699410457741 41.397998074881976 1.5454399209775362 0 0 0
437 3 18.705239458093647 41.3979980748819 1.5454399209775438 0 0 0
438 3 21.822779505729542 41.39799807488196 1.54543992097758 0 0 0
439 3 24.940319553365402 41.39799807488191 1.5454399209776173 0 0 0
344 3 1.5587691960964773 44.09786751228349 1.5454399209775134 0 0 0
345 3 4.6763092437323 44.097867512283386 1.545439920977542 0 0 0
346 3 7.793849291367854 44.09786751228349 1.5454399209776009 0 0 0
347 3 10.911389339003858 44.09786751228349 1.5454399209775804 0 0 0
348 3 14.028929386639799 44.09786751228349 1.5454399209775627 0 0 0
349 3 17.14646943427572 44.097867512283436 1.5454399209775942 0 0 0
468 3 20.264009481911597 44.097867512283365 1.545439920977582 0 0 0
469 3 23.381549529547442 44.0978675122834 1.5454399209776188 0 0 0
350 3 3.1175392199144656 46.797736949684804 1.5454399209775755 0 0 0
351 3 6.23507926755005 46.79773694968479 1.5454399209775618 0 0 0
352 3 9.352619315185857 46.797736949684825 1.5454399209776208 0 0 0
353 3 12.470159362821787 46.79773694968491 1.5454399209774952 0 0 0
354 3 15.58769941045772 46.79773694968488 1.5454399209775318 0 0 0
470 3 18.705239458093647 46.79773694968475 1.5454399209775598 0 0 0
471 3 21.822779505729564 46.79773694968479 1.5454399209775886 0 0 0
472 3 24.94031955336544 46.797736949684776 1.5454399209775462 0 0 0
355 3 1.5587691960965389 49.49760638708636 1.5454399209775511 0 0 0
356 3 4.676309243732086 49.497606387086144 1.5454399209776821 0 0 0
357 3 7.793849291367904 49.49760638708625 1.5454399209775955 0 0 0
358 3 10.911389339003852 49.49760638708625 1.5454399209775904 0 0 0
359 3 14.028929386639739 49.49760638708619 1.5454399209775929 0 0 0
360 3 17.146469434275698 49.497606387086144 1.5454399209776004 0 0 0
473 3 20.264009481911597 49.49760638708622 1.5454399209776115 0 0 0
474 3 23.38154952954741 49.49760638708628 1.5454399209775704 0 0 0
361 3 3.1175392199144043 52.19747582448767 1.5454399209774972 0 0 0
362 3 6.2350792675498505 52.197475824487604 1.5454399209776193 0 0 0
363 3 9.352619315185887 52.19747582448761 1.5454399209776688 0 0 0
364 3 12.470159362821711 52.197475824487604 1.545439920977533 0 0 0
365 3 15.587699410457653 52.19747582448763 1.5454399209775291 0 0 0
475 3 18.70523945809372 52.19747582448763 1.545439920977549 0 0 0
476 3 21.82277950572958 52.197475824487555 1.5454399209775171 0 0 0
477 3 24.94031955336537 52.19747582448764 1.5454399209775693 0 0 0
366 3 1.558769196096732 54.897345261889186 1.5454399209775729 0 0 0
367 3 4.676309243732178 54.89734526188893 1.5454399209774932 0 0 0
368 3 7.793849291367825 54.897345261889086 1.5454399209775698 0 0 0
369 3 10.911389339003838 54.89734526188908 1.5454399209776164 0 0 0
370 3 14.028929386639756 54.89734526188912 1.5454399209775405 0 0 0
371 3 17.14646943427568 54.89734526188905 1.5454399209775316 0 0 0
478 3 20.26400948191155 54.897345261889 1.5454399209775338 0 0 0
479 3 23.381549529547524 54.89734526188903 1.5454399209775673 0 0 0
291 2 3.1175392199146468 30.598520325276198 4.663253412355912 0 0 0
293 2 6.235079267550214 30.598520325276155 4.663253412355843 0 0 0
295 2 9.352619315185843 30.598520325276223 4.663253412355792 0 0 0
297 2 12.47015936282176 30.59852032527625 4.663253412355794 0 0 0
299 2 15.58769941045777 30.59852032527632 4.663253412355799 0 0 0
443 2 18.705239458093658 30.59852032527625 4.663253412355814 0 0 0
445 2 21.82277950572952 30.598520325276333 4.663253412355804 0 0 0
447 2 24.940319553365413 30.598520325276237 4.663253412355775 0 0 0
289 1 1.5587691960966785 31.498476783001795 3.10434666666669 0 0 0
300 2 1.5587691960968668 33.29838976267749 4.663253412355862 0 0 0
290 1 4.676309243732422 31.498476783002065 3.1043466666667334 0 0 0
301 2 4.676309243732498 33.29838976267774 4.663253412355891 0 0 0
292 1 7.793849291367988 31.498476783001873 3.1043466666666824 0 0 0
303 2 7.7938492913680975 33.29838976267762 4.663253412355769 0 0 0
294 1 10.911389339003822 31.498476783001955 3.1043466666666775 0 0 0
305 2 10.911389339003849 33.298389762677694 4.663253412355786 0 0 0
296 1 14.028929386639737 31.498476783001905 3.104346666666675 0 0 0
307 2 14.02892938663975 33.298389762677694 4.6632534123558065 0 0 0
298 1 17.146469434275687 31.498476783001873 3.1043466666666686 0 0 0
309 2 17.146469434275698 33.29838976267765 4.663253412355825 0 0 0
444 1 20.264009481911582 31.498476783001905 3.1043466666666846 0 0 0
449 2 20.2640094819116 33.298389762677694 4.663253412355822 0 0 0
446 1 23.38154952954751 31.49847678300185 3.1043466666667086 0 0 0
451 2 23.38154952954743 33.29838976267762 4.663253412355852 0 0 0
302 1 3.1175392199146055 34.198346220403224 3.104346666666689 0 0 0
313 2 3.117539219914635 35.99825920007893 4.663253412355819 0 0 0
304 1 6.235079267550253 34.19834622040336 3.104346666666702 0 0 0
315 2 6.235079267550065 35.99825920007909 4.663253412355853 0 0 0
306 1 9.352619315185942 34.19834622040334 3.1043466666666895 0 0 0
317 2 9.352619315185903 35.99825920007917 4.663253412355819 0 0 0
308 1 12.47015936282182 34.19834622040336 3.1043466666666855 0 0 0
319 2 12.470159362821809 35.9982592000792 4.6632534123558 0 0 0
310 1 15.58769941045773 34.19834622040334 3.1043466666666966 0 0 0
321 2 15.587699410457729 35.99825920007917 4.663253412355775 0 0 0
448 1 18.705239458093647 34.19834622040334 3.1043466666667174 0 0 0
453 2 18.705239458093658 35.99825920007912 4.663253412355793 0 0 0
450 1 21.822779505729578 34.19834622040334 3.104346666666705 0 0 0
455 2 21.822779505729603 35.998259200079076 4.663253412355802 0 0 0
452 1 24.940319553365402 34.19834622040334 3.1043466666667094 0 0 0
457 2 24.94031955336541 35.99825920007906 4.6632534123558225 0 0 0
311 1 1.558769196096691 36.898215657804684 3.10434666666683 0 0 0
322 2 1.5587691960974757 38.698128637480394 4.663253412355916 0 0 0
312 1 4.676309243732357 36.89821565780489 3.1043466666666886 0 0 0
323 2 4.676309243732552 38.698128637480565 4.663253412355816 0 0 0
314 1 7.793849291367959 36.89821565780478 3.1043466666667108 0 0 0
325 2 7.793849291368023 38.69812863748048 4.663253412355792 0 0 0
316 1 10.911389339003858 36.89821565780486 3.1043466666667077 0 0 0
327 2 10.911389339003902 38.698128637480536 4.6632534123558305 0 0 0
318 1 14.02892938663979 36.898215657804826 3.104346666666662 0 0 0
329 2 14.02892938663979 38.698128637480586 4.6632534123558 0 0 0
320 1 17.146469434275676 36.89821565780485 3.1043466666666863 0 0 0
331 2 17.14646943427571 38.698128637480565 4.6632534123558065 0 0 0
454 1 20.264009481911618 36.89821565780477 3.1043466666666886 0 0 0
459 2 20.264009481911597 38.698128637480494 4.663253412355782 0 0 0
456 1 23.381549529547463 36.8982156578048 3.1043466666666673 0 0 0
461 2 23.381549529547463 38.69812863748051 4.663253412355832 0 0 0
324 1 3.1175392199149012 39.59808509520628 3.104346666666695 0 0 0
335 2 3.1175392199148253 41.39799807488196 4.66325341235578 0 0 0
326 1 6.235079267550224 39.59808509520628 3.10434666666669 0 0 0
337 2 6.235079267550076 41.39799807488213 4.663253412355875 0 0 0
328 1 9.352619315185954 39.59808509520624 3.1043466666667117 0 0 0
339 2 9.352619315185892 41.39799807488201 4.663253412355789 0 0 0
330 1 12.470159362821809 39.59808509520625 3.1043466666666975 0 0 0
341 2 12.470159362821887 41.39799807488206 4.663253412355839 0 0 0
332 1 15.58769941045775 39.598085095206194 3.1043466666666912 0 0 0
343 2 15.587699410457752 41.397998074881954 4.663253412355818 0 0 0
458 1 18.705239458093647 39.59808509520615 3.1043466666666797 0 0 0
463 2 18.70523945809368 41.39799807488205 4.663253412355822 0 0 0
460 1 21.822779505729564 39.59808509520624 3.10434666666668 0 0 0
465 2 21.822779505729503 41.39799807488194 4.66325341235582 0 0 0
462 1 24.940319553365434 39.59808509520621 3.1043466666667063 0 0 0
467 2 24.940319553365335 41.39799807488187 4.66325341235583 0 0 0
333 1 1.558769196096691 42.29795453260778 3.1043466666666726 0 0 0
372 2 1.5587691960965557 44.09786751228353 4.663253412355958 0 0 0
334 1 4.676309243732448 42.29795453260767 3.1043466666666975 0 0 0
373 2 4.676309243732278 44.09786751228334 4.663253412355837 0 0 0
336 1 7.7938492913679385 42.29795453260783 3.1043466666667157 0 0 0
375 2 7.793849291367924 44.097867512283464 4.663253412355769 0 0 0
338 1 10.911389339003899 42.29795453260761 3.1043466666666997 0 0 0
377 2 10.911389339003849 44.097867512283436 4.663253412355769 0 0 0
340 1 14.028929386639769 42.297954532607584 3.104346666666692 0 0 0
379 2 14.02892938663979 44.09786751228349 4.663253412355766 0 0 0
342 1 17.146469434275737 42.297954532607626 3.104346666666678 0 0 0
381 2 17.146469434275698 44.097867512283415 4.6632534123558 0 0 0
464 1 20.26400948191161 42.29795453260757 3.1043466666666957 0 0 0
481 2 20.26400948191155 44.097867512283415 4.663253412355867 0 0 0
466 1 23.381549529547463 42.29795453260767 3.104346666666739 0 0 0
483 2 23.38154952954751 44.097867512283436 4.663253412355832 0 0 0
374 1 3.1175392199143968 44.99782397000897 3.104346666666693 0 0 0
385 2 3.1175392199144816 46.79773694968469 4.663253412355908 0 0 0
376 1 6.2350792675499855 44.99782397000902 3.104346666666721 0 0 0
387 2 6.23507926755012 46.79773694968479 4.663253412355882 0 0 0
378 1 9.352619315185875 44.99782397000905 3.1043466666666695 0 0 0
389 2 9.352619315185853 46.79773694968479 4.663253412355753 0 0 0
380 1 12.470159362821857 44.99782397000911 3.1043466666666566 0 0 0
391 2 12.47015936282183 46.79773694968488 4.66325341235585 0 0 0
382 1 15.58769941045776 44.99782397000902 3.104346666666668 0 0 0
393 2 15.587699410457716 46.79773694968488 4.6632534123557905 0 0 0
480 1 18.705239458093658 44.99782397000902 3.104346666666726 0 0 0
485 2 18.705239458093658 46.797736949684854 4.663253412355779 0 0 0
482 1 21.822779505729542 44.99782397000891 3.1043466666667157 0 0 0
487 2 21.822779505729578 46.7977369496847 4.663253412355815 0 0 0
484 1 24.940319553365352 44.99782397000905 3.1043466666666775 0 0 0
489 2 24.940319553365402 46.797736949684854 4.663253412355762 0 0 0
383 1 1.558769196096397 47.69769340741043 3.1043466666667716 0 0 0
394 2 1.5587691960965755 49.49760638708631 4.663253412356033 0 0 0
384 1 4.67630924373225 47.69769340741042 3.1043466666667476 0 0 0