LAMMPS data file via write_data, version 2 Aug 2023, timestep = 1220, units = metal

9440 atoms
3 atom types

0 311.75359036453204 xlo xhi
0 86.39576699600725 ylo yhi
0 50 zlo zhi
0 0 0 xy xz yz

Masses

1 95.94
2 32.065
3 32.065

Atoms # atomic

1 3 1.5587705399917713 0.8999563042971049 1.5454400874096792 0 0 0
2 3 4.676311893372599 0.8999560730304073 1.5454400684795244 0 0 0
3 3 7.793851372181759 0.899956005522557 1.5454388149546343 0 0 0
4 3 10.911392046902067 0.8999563326465816 1.5454384958577447 0 0 0
5 3 14.028932964135612 0.8999560498072142 1.545442964701887 0 0 0
6 3 17.146468405251586 0.899955372190032 1.545444756787514 0 0 0
145 3 20.26400515738787 0.8999564940276562 1.5454346924538735 0 0 0
146 3 23.381553812848605 0.8999578307729137 1.545427503442848 0 0 0
7 3 3.1175415236213375 3.599823921969719 1.5454401689739654 0 0 0
8 3 6.235081711776247 3.599823700481391 1.5454395975115587 0 0 0
9 3 9.352621400972604 3.599823876719074 1.5454381944182582 0 0 0
10 3 12.470162899498401 3.5998240549653393 1.5454402282280733 0 0 0
11 3 15.58770139962153 3.5998233237670996 1.545445134878007 0 0 0
12 3 18.70523561408877 3.5998234024291906 1.5454408816248613 0 0 0
147 3 21.822778150240744 3.5998250722298537 1.5454291863012686 0 0 0
148 3 24.940329624725635 3.5998256075728383 1.5454309579072754 0 0 0
13 3 1.5587705399907206 6.299691741548215 1.545440087409552 0 0 0
14 3 4.676311893373374 6.299691510280969 1.5454400684793033 0 0 0
15 3 7.793851372182241 6.299691442773906 1.5454388149543483 0 0 0
16 3 10.911392046901897 6.299691769897836 1.5454384958576792 0 0 0
17 3 14.028932964135244 6.299691487058244 1.5454429647019612 0 0 0
18 3 17.146468405251518 6.299690809441067 1.5454447567873735 0 0 0
149 3 20.264005157387842 6.299691931278443 1.5454346924537803 0 0 0
150 3 23.381553812848885 6.2996932680236215 1.5454275034428013 0 0 0
19 3 3.1175415236214405 8.99955935922036 1.5454401689741515 0 0 0
20 3 6.2350817117766635 8.999559137731621 1.5454395975113941 0 0 0
21 3 9.352621400972287 8.999559313969328 1.5454381944181137 0 0 0
22 3 12.470162899498408 8.999559492215624 1.54544022822808 0 0 0
23 3 15.587701399621944 8.999558761017422 1.5454451348779847 0 0 0
24 3 18.705235614088632 8.999558839679715 1.545440881624669 0 0 0
151 3 21.822778150240616 8.999560509480041 1.5454291863011294 0 0 0
152 3 24.940329624725887 8.999561044823098 1.545430957907151 0 0 0
25 3 1.5587705399912113 11.699427178798572 1.5454400874095615 0 0 0
26 3 4.676311893372957 11.699426947532032 1.5454400684792846 0 0 0
27 3 7.7938513721815585 11.699426880024076 1.5454388149546132 0 0 0
28 3 10.91139204690148 11.699427207148092 1.545438495857851 0 0 0
29 3 14.028932964135581 11.699426924308506 1.5454429647019927 0 0 0
30 3 17.146468405251873 11.699426246691347 1.5454447567875083 0 0 0
153 3 20.264005157387754 11.699427368528587 1.5454346924538742 0 0 0
154 3 23.381553812848786 11.69942870527406 1.545427503442895 0 0 0
93 3 3.1175415236212483 14.399294796471022 1.5454401689738857 0 0 0
95 3 6.23508171177637 14.399294574982441 1.5454395975114954 0 0 0
97 3 9.352621400971959 14.399294751220436 1.5454381944182138 0 0 0
98 3 12.470162899498414 14.39929492946682 1.5454402282279556 0 0 0
100 3 15.587701399622114 14.399294198267999 1.5454451348779659 0 0 0
102 3 18.70523561408856 14.399294276930403 1.545440881624765 0 0 0
176 3 21.8227781502404 14.399295946731181 1.5454291863011884 0 0 0
178 3 24.940329624725635 14.399296482073767 1.5454309579071421 0 0 0
91 3 1.5587705399914134 17.09916261604856 1.545440087409551 0 0 0
92 3 4.676311893373246 17.099162384782147 1.5454400684795537 0 0 0
94 3 7.793851372182083 17.099162317273986 1.5454388149546512 0 0 0
96 3 10.911392046901915 17.099162644398486 1.5454384958576657 0 0 0
99 3 14.028932964135409 17.099162361558875 1.545442964701928 0 0 0
101 3 17.146468405251923 17.099161683941528 1.5454447567874536 0 0 0
175 3 20.264005157388095 17.09916280577928 1.545434692453805 0 0 0
177 3 23.38155381284902 17.09916414252438 1.5454275034428862 0 0 0
103 3 3.117541523620961 19.799030233721496 1.545440168973844 0 0 0
104 3 6.235081711776345 19.79903001223247 1.5454395975117197 0 0 0
105 3 9.352621400972335 19.79903018847044 1.5454381944179993 0 0 0
106 3 12.470162899498167 19.799030366716877 1.5454402282280453 0 0 0
107 3 15.587701399621993 19.799029635518355 1.5454451348782174 0 0 0
108 3 18.705235614088846 19.799029714180563 1.5454408816248069 0 0 0
179 3 21.822778150240847 19.79903138398117 1.5454291863011451 0 0 0
180 3 24.940329624725628 19.799031919323934 1.545430957907274 0 0 0
31 2 1.558770355562444 0.89995625880481 4.663253521159626 0 0 0
32 2 4.676312279627515 0.8999562243933779 4.663253708442146 0 0 0
33 1 3.117541412476711 1.7999116208827277 3.104346941589164 0 0 0
34 2 7.7938526432084085 0.8999560570822313 4.6632526348827685 0 0 0
35 1 6.235082176976441 1.7999118076808251 3.104346501745625 0 0 0
37 1 9.352621586920623 1.799911879330332 3.104345043591004 0 0 0
36 2 10.91139026875394 0.8999557223205121 4.663252305713568 0 0 0
38 1 12.47016085165359 1.7999118206712958 3.104347014188983 0 0 0
39 2 14.02892828097284 0.8999560619509275 4.6632567141927534 0 0 0
40 1 15.587700479260956 1.799911816518174 3.1043522294862926 0 0 0
41 2 17.14647239387913 0.8999569022368994 4.663258501558538 0 0 0
42 1 18.70524048295889 1.7999119061443447 3.104347958037024 0 0 0
155 2 20.264016538092033 0.8999563404786248 4.663248289967245 0 0 0
156 1 21.822781700377046 1.7999119038038478 3.1043355658708225 0 0 0
157 2 23.38155203867048 0.8999557222356819 4.663240893022006 0 0 0
158 1 24.940324236651946 1.799912340679632 3.104337303327248 0 0 0
43 1 1.5587704100451518 4.49977926654052 3.1043467994937766 0 0 0
44 1 4.676312015688446 4.499779435979078 3.1043469170523075 0 0 0
45 2 3.1175414288625234 3.599823963917955 4.663253691550209 0 0 0
46 1 7.793851978093645 4.499779584354344 3.104345720535398 0 0 0
47 2 6.235082754868173 3.5998238922026866 4.663253347409635 0 0 0
49 2 9.352621772471057 3.5998235950428246 4.6632520304612575 0 0 0
48 1 10.911391175931465 4.499779574902472 3.104345278575718 0 0 0
50 2 12.470158769411386 3.5998234706289214 4.663253998672465 0 0 0
51 1 14.028930634555865 4.499779519511454 3.104349872854831 0 0 0
52 2 15.587699577602407 3.599824266471054 4.6632588833222615 0 0 0
53 1 17.14647040413154 4.499779580277626 3.10435195381545 0 0 0
54 2 18.705245323824933 3.599824551948486 4.663254583210848 0 0 0
159 1 20.264010875521873 4.499779633183083 3.104341430365914 0 0 0
160 2 21.822785145337544 3.5998235136032073 4.663242670772587 0 0 0
161 1 23.38155282998435 4.4997797196789575 3.1043337193728036 0 0 0
162 2 24.9403190374755 3.59982409501181 4.66324433686932 0 0 0
55 2 1.5587703555613408 6.2996916960558655 4.663253521159022 0 0 0
56 2 4.676312279628299 6.299691661644141 4.663253708441973 0 0 0
57 1 3.1175414124768084 7.199647058133079 3.1043469415889207 0 0 0
58 2 7.793852643209058 6.299691494333417 4.6632526348829035 0 0 0
59 1 6.2350821769771505 7.199647244931379 3.104346501745495 0 0 0
61 1 9.35262158692063 7.199647316581107 3.104345043590919 0 0 0
60 2 10.911390268753438 6.299691159571525 4.663252305713657 0 0 0
62 1 12.470160851653315 7.199647257921917 3.1043470141890936 0 0 0
63 2 14.028928280972732 6.299691499202023 4.663256714192895 0 0 0
64 1 15.58770047926092 7.199647253768876 3.1043522294862926 0 0 0
65 2 17.146472393879225 6.299692339487969 4.663258501558457 0 0 0
66 1 18.705240482958967 7.19964734339507 3.104347958036916 0 0 0
163 2 20.264016538092296 6.299691777729618 4.663248289967291 0 0 0
164 1 21.822781700377313 7.199647341054277 3.1043355658707203 0 0 0
165 2 23.381552038670826 6.299691159486408 4.6632408930220395 0 0 0
166 1 24.94032423665202 7.199647777930282 3.104337303327214 0 0 0
67 1 1.5587704100447846 9.899514703790992 3.1043467994939764 0 0 0
68 1 4.676312015688989 9.899514873229746 3.104346917052252 0 0 0
69 2 3.1175414288631162 8.999559401168417 4.663253691550114 0 0 0
70 1 7.793851978093643 9.899515021604428 3.1043457205354605 0 0 0
71 2 6.235082754868656 8.999559329452717 4.6632533474096824 0 0 0
73 2 9.352621772470734 8.99955903229282 4.663252030461442 0 0 0
72 1 10.91139117593121 9.899515012152424 3.10434527857573 0 0 0
74 2 12.470158769411347 8.999558907879141 4.663253998672496 0 0 0
75 1 14.028930634555975 9.899514956761582 3.1043498728547956 0 0 0
76 2 15.587699577602564 8.999559703721465 4.663258883322327 0 0 0
77 1 17.146470404131673 9.89951501752795 3.1043519538155087 0 0 0
78 2 18.705245323824744 8.999559989198765 4.663254583210913 0 0 0
167 1 20.264010875521812 9.899515070433191 3.1043414303658725 0 0 0
168 2 21.822785145337804 8.999558950853466 4.6632426707724015 0 0 0
169 1 23.381552829984614 9.89951515692908 3.1043337193726694 0 0 0
170 2 24.940319037475692 8.999559532262046 4.663244336869462 0 0 0
79 2 1.5587703555620995 11.699427133306738 4.663253521159514 0 0 0
80 2 4.676312279627612 11.699427098895027 4.663253708441947 0 0 0
81 1 3.1175414124766725 12.599382495384022 3.1043469415889 0 0 0
82 2 7.793852643208371 11.699426931583574 4.66325263488293 0 0 0
83 1 6.235082176976608 12.599382682182192 3.1043465017456087 0 0 0
85 1 9.352621586920193 12.599382753831833 3.104345043591028 0 0 0
84 2 10.911390268753538 11.699426596821809 4.663252305713369 0 0 0
86 1 12.470160851653391 12.599382695172691 3.104347014188886 0 0 0
87 2 14.028928280972837 11.69942693645228 4.66325671419271 0 0 0
88 1 15.58770047926119 12.599382691019304 3.1043522294863197 0 0 0
89 2 17.146472393879364 11.699427776738196 4.663258501558546 0 0 0
90 1 18.705240482959063 12.59938278064563 3.1043479580370414 0 0 0
171 2 20.264016538092143 11.699427214979757 4.663248289967226 0 0 0
172 1 21.82278170037718 12.599382778305028 3.1043355658707554 0 0 0
173 2 23.38155203867084 11.699426596736789 4.663240893021844 0 0 0
174 1 24.94032423665226 12.599383215180781 3.1043373033272372 0 0 0
110 1 1.558770410045542 15.299250141041748 3.1043467994932428 0 0 0
112 1 4.676312015688635 15.299250310479959 3.104346917052374 0 0 0
113 2 3.117541428863038 14.399294838419028 4.66325369155018 0 0 0
115 1 7.793851978093247 15.299250458854814 3.104345720535673 0 0 0
116 2 6.2350827548680865 14.399294766703262 4.663253347409979 0 0 0
119 2 9.352621772470691 14.399294469543898 4.663252030461506 0 0 0
118 1 10.91139117593119 15.299250449403152 3.104345278575636 0 0 0
120 2 12.470158769411498 14.399294345130187 4.663253998672321 0 0 0
122 1 14.028930634556232 15.299250394012214 3.104349872854729 0 0 0
123 2 15.587699577602812 14.399295140972049 4.663258883322332 0 0 0
125 1 17.146470404131843 15.29925045477845 3.1043519538155255 0 0 0
126 2 18.705245323824904 14.399295426449633 4.6632545832110015 0 0 0
182 1 20.264010875521784 15.299250507683915 3.104341430365901 0 0 0
183 2 21.82278514533769 14.399294388104565 4.663242670772533 0 0 0
185 1 23.381552829984585 15.299250594179753 3.1043337193727574 0 0 0
186 2 24.940319037475817 14.399294969512813 4.6632443368694885 0 0 0
109 2 1.558770355561656 17.0991625705571 4.663253521159212 0 0 0
111 2 4.6763122796278465 17.099162536144966 4.6632537084421015 0 0 0
127 1 3.117541412476829 17.999117932634277 3.1043469415889624 0 0 0
114 2 7.793852643208934 17.09916236883348 4.663252634883063 0 0 0
129 1 6.235082176977103 17.999118119432072 3.1043465017457716 0 0 0
131 1 9.3526215869206 17.99911819108185 3.104345043590945 0 0 0
117 2 10.911390268753657 17.099162034071842 4.663252305713468 0 0 0
133 1 12.470160851653231 17.99911813242278 3.104347014188938 0 0 0
121 2 14.028928280972428 17.099162373702534 4.663256714192808 0 0 0
135 1 15.587700479261096 17.999118128269394 3.1043522294863837 0 0 0
124 2 17.14647239387956 17.099163213988394 4.6632585015585235 0 0 0
137 1 18.705240482959166 17.999118217895784 3.104347958036989 0 0 0
181 2 20.26401653809216 17.09916265223013 4.663248289967285 0 0 0
187 1 21.822781700377234 17.99911821555515 3.1043355658707097 0 0 0
184 2 23.381552038670467 17.099162033987078 4.663240893021984 0 0 0
189 1 24.940324236652128 17.999118652430898 3.104337303327304 0 0 0
139 1 1.5587704100450401 20.698985578291975 3.104346799493319 0 0 0
128 2 3.1175414288625665 19.799030275669406 4.663253691550112 0 0 0
140 1 4.676312015688527 20.698985747730553 3.10434691705254 0 0 0
130 2 6.2350827548685785 19.799030203953574 4.663253347409786 0 0 0
141 1 7.793851978093536 20.69898589610557 3.1043457205353833 0 0 0
132 2 9.352621772470828 19.79902990679403 4.663252030461278 0 0 0
134 2 12.470158769411018 19.799029782380213 4.66325399867236 0 0 0
142 1 10.91139117593107 20.698985886653603 3.104345278575592 0 0 0
143 1 14.028930634555888 20.69898583126276 3.104349872854847 0 0 0
136 2 15.587699577602727 19.79903057822226 4.663258883322323 0 0 0
144 1 17.146470404131893 20.69898589202924 3.104351953815577 0 0 0
138 2 18.705245323825288 19.79903086369982 4.6632545832108665 0 0 0
191 1 20.264010875521937 20.698985944934396 3.1043414303657277 0 0 0
188 2 21.822785145337157 19.799029825354303 4.663242670772384 0 0 0
192 1 23.381552829984397 20.698986031430156 3.104333719372813 0 0 0
190 2 24.940319037475394 19.79903040676283 4.663244336869457 0 0 0
193 3 1.5587705399912963 22.49889805329945 1.545440087409487 0 0 0
194 3 4.676311893373134 22.498897822032415 1.5454400684795613 0 0 0
195 3 7.793851372181598 22.498897754525206 1.5454388149544118 0 0 0
196 3 10.911392046901826 22.498898081649045 1.545438495857614 0 0 0
197 3 14.028932964135617 22.498897798809995 1.5454429647021444 0 0 0
198 3 17.146468405251646 22.498897121192776 1.5454447567874385 0 0 0
337 3 20.264005157387825 22.49889824302971 1.545434692453647 0 0 0
338 3 23.381553812848804 22.498899579774967 1.5454275034429 0 0 0
199 3 3.117541523621807 25.19876567097158 1.5454401689738277 0 0 0
200 3 6.235081711776567 25.19876544948285 1.5454395975115764 0 0 0
201 3 9.352621400972355 25.19876562572103 1.5454381944180628 0 0 0
202 3 12.47016289949864 25.19876580396729 1.5454402282279052 0 0 0
203 3 15.587701399621919 25.198765072768847 1.5454451348781002 0 0 0
204 3 18.705235614088416 25.19876515143119 1.545440881624611 0 0 0
339 3 21.822778150240655 25.198766821231526 1.5454291863011989 0 0 0
340 3 24.940329624725955 25.198767356574585 1.545430957907199 0 0 0
205 3 1.5587705399914615 27.898633490549575 1.545440087409376 0 0 0
206 3 4.676311893372899 27.89863325928239 1.5454400684793095 0 0 0
207 3 7.793851372181684 27.898633191775584 1.5454388149547327 0 0 0
208 3 10.911392046901726 27.898633518899523 1.545438495857592 0 0 0
209 3 14.02893296413568 27.89863323605948 1.5454429647020298 0 0 0
210 3 17.146468405251944 27.898632558442486 1.5454447567875191 0 0 0
341 3 20.264005157387654 27.898633680279975 1.5454346924537448 0 0 0
342 3 23.381553812848743 27.898635017025203 1.5454275034428775 0 0 0
241 3 3.1175415236212265 30.59850110822285 1.5454401689740633 0 0 0
242 3 6.2350817117770685 30.598500886733365 1.5454395975116229 0 0 0
243 3 9.35262140097232 30.59850106297177 1.5454381944180646 0 0 0
244 3 12.470162899498021 30.598501241217786 1.545440228228002 0 0 0
245 3 15.587701399622144 30.598500510019555 1.5454451348781262 0 0 0
246 3 18.705235614088693 30.598500588681755 1.5454408816247163 0 0 0
353 3 21.822778150240648 30.598502258482014 1.5454291863012135 0 0 0
354 3 24.94032962472598 30.59850279382516 1.5454309579071772 0 0 0
247 3 1.5587705399911287 33.29836892779999 1.54544008740942 0 0 0
248 3 4.67631189337319 33.298368696533345 1.5454400684792722 0 0 0
249 3 7.793851372182101 33.29836862902593 1.54543881495459 0 0 0
250 3 10.911392046901172 33.29836895614991 1.5454384958575316 0 0 0
251 3 14.02893296413555 33.298368673310854 1.5454429647019956 0 0 0
252 3 17.146468405252165 33.29836799569316 1.5454447567874565 0 0 0
355 3 20.264005157387647 33.298369117530434 1.5454346924536888 0 0 0
356 3 23.3815538128487 33.29837045427558 1.5454275034427178 0 0 0
253 3 3.1175415236217545 35.9982365454731 1.5454401689742143 0 0 0
254 3 6.235081711776671 35.998236323983946 1.5454395975116195 0 0 0
255 3 9.352621400972662 35.99823650022162 1.5454381944181133 0 0 0
256 3 12.470162899498156 35.99823667846775 1.545440228227956 0 0 0
257 3 15.587701399622057 35.998235947269244 1.5454451348781195 0 0 0
258 3 18.705235614088732 35.99823602593165 1.5454408816247074 0 0 0
357 3 21.822778150240765 35.99823769573247 1.545429186301214 0 0 0
358 3 24.94032962472597 35.99823823107555 1.5454309579073178 0 0 0
259 3 1.5587705399917549 38.69810436505071 1.5454400874100773 0 0 0
260 3 4.67631189337339 38.69810413378414 1.545440068479358 0 0 0
261 3 7.79385137218198 38.69810406627676 1.5454388149543952 0 0 0
262 3 10.911392046901657 38.698104393400584 1.5454384958576808 0 0 0
263 3 14.02893296413519 38.69810411056092 1.5454429647020438 0 0 0
264 3 17.146468405251838 38.69810343294379 1.5454447567874756 0 0 0
359 3 20.26400515738824 38.698104554781125 1.5454346924538565 0 0 0
360 3 23.381553812848786 38.69810589152613 1.5454275034429368 0 0 0
265 3 3.1175415236220005 41.397971982723206 1.5454401689736952 0 0 0
266 3 6.235081711776128 41.397971761234565 1.5454395975115767 0 0 0
267 3 9.352621400972184 41.397971937472484 1.545438194418116 0 0 0
268 3 12.470162899498288 41.397972115718375 1.5454402282277628 0 0 0
269 3 15.587701399621924 41.397971384520005 1.545445134878031 0 0 0
270 3 18.705235614088625 41.39797146318221 1.545440881624668 0 0 0
361 3 21.822778150240747 41.39797313298332 1.5454291863011318 0 0 0
362 3 24.94032962472578 41.39797366832613 1.5454309579070336 0 0 0
211 2 1.5587703555624144 22.4988980078072 4.663253521159134 0 0 0
212 2 4.676312279627974 22.498897973396005 4.663253708442264 0 0 0
217 1 3.1175414124770433 23.398853369884847 3.104346941588966 0 0 0
213 2 7.793852643208601 22.4988978060845 4.663252634882982 0 0 0
219 1 6.235082176976798 23.398853556682766 3.1043465017456984 0 0 0
221 1 9.352621586920364 23.398853628332528 3.1043450435908397 0 0 0
214 2 10.911390268753449 22.498897471322724 4.663252305713416 0 0 0
223 1 12.470160851653247 23.39885356967345 3.104347014188983 0 0 0
215 2 14.028928280972586 22.498897810953306 4.663256714192901 0 0 0
225 1 15.587700479261146 23.39885356552042 3.1043522294865222 0 0 0
216 2 17.146472393879655 22.498898651239593 4.663258501558542 0 0 0
227 1 18.705240482959155 23.398853655146535 3.1043479580368283 0 0 0
343 2 20.2640165380923 22.498898089480804 4.663248289967159 0 0 0
345 1 21.822781700377234 23.39885365280574 3.1043355658707044 0 0 0
344 2 23.381552038670826 22.498897471237672 4.663240893021947 0 0 0
347 1 24.940324236652177 23.398854089681674 3.1043373033272816 0 0 0
230 1 1.5587704100453488 26.098721015542054 3.1043467994935794 0 0 0
218 2 3.1175414288630496 25.198765712919627 4.663253691550303 0 0 0
232 1 4.6763120156887545 26.098721184980434 3.104346917052339 0 0 0
220 2 6.235082754868158 25.198765641203796 4.663253347409919 0 0 0
235 1 7.79385197809348 26.09872133335572 3.104345720535604 0 0 0
222 2 9.35262177247105 25.198765344044386 4.663252030461325 0 0 0
224 2 12.470158769411324 25.19876521963083 4.663253998672382 0 0 0
238 1 10.911391175931408 26.098721323903924 3.10434527857548 0 0 0
239 1 14.028930634556156 26.098721268512847 3.1043498728548724 0 0 0
226 2 15.587699577602685 25.198766015472795 4.663258883322509 0 0 0
233 1 17.146470404131723 26.09872132927929 3.104351953815578 0 0 0
228 2 18.70524532382486 25.198766300950165 4.663254583210853 0 0 0
350 1 20.264010875521624 26.098721382184554 3.1043414303657606 0 0 0
346 2 21.82278514533749 25.19876526260486 4.663242670772427 0 0 0
352 1 23.381552829984585 26.09872146868049 3.1043337193727747 0 0 0
348 2 24.94031903747564 25.198765844013565 4.6632443368695755 0 0 0
229 2 1.5587703555625212 27.89863344505771 4.663253521159187 0 0 0
231 2 4.676312279627572 27.89863341064535 4.663253708441967 0 0 0
331 1 3.1175414124769056 28.7985888071352 3.1043469415887697 0 0 0
234 2 7.793852643208721 27.898633243334885 4.663252634882957 0 0 0
333 1 6.235082176976535 28.798588993933073 3.1043465017457117 0 0 0
334 1 9.3526215869205 28.798589065583116 3.1043450435909623 0 0 0
237 2 10.91139026875353 27.89863290857279 4.663252305713379 0 0 0
336 1 12.470160851653334 28.798589006923613 3.1043470141888907 0 0 0
240 2 14.028928280972778 27.898633248203424 4.663256714192783 0 0 0
335 1 15.587700479261201 28.79858900277051 3.104352229486348 0 0 0
236 2 17.146472393879495 27.898634088489402 4.663258501558523 0 0 0
332 1 18.705240482959024 28.798589092397005 3.1043479580369278 0 0 0
349 2 20.264016538091962 27.898633526730986 4.663248289967168 0 0 0
383 1 21.822781700377156 28.798589090056105 3.1043355658707705 0 0 0
351 2 23.38155203867074 27.898632908487873 4.663240893021995 0 0 0
384 1 24.94032423665212 28.798589526932137 3.1043373033272506 0 0 0
271 1 1.5587704100446547 31.498456452792908 3.104346799493817 0 0 0
272 1 4.676312015688888 31.498456622231295 3.1043469170523244 0 0 0
273 2 3.117541428862383 30.598501150170474 4.663253691550168 0 0 0
274 1 7.793851978093806 31.498456770606317 3.1043457205356715 0 0 0
275 2 6.2350827548684595 30.598501078454408 4.663253347409865 0 0 0
277 2 9.352621772471004 30.598500781295108 4.663252030461553 0 0 0
276 1 10.911391175930984 31.498456761154554 3.1043452785755616 0 0 0
278 2 12.470158769411011 30.598500656881274 4.66325399867222 0 0 0
279 1 14.02893063455595 31.498456705763775 3.1043498728547427 0 0 0
280 2 15.587699577602809 30.598501452723397 4.663258883322316 0 0 0
281 1 17.146470404131982 31.498456766529845 3.104351953815595 0 0 0
282 2 18.705245323825103 30.5985017382007 4.6632545832109535 0 0 0
363 1 20.2640108755217 31.498456819435376 3.104341430365836 0 0 0
364 2 21.822785145337473 30.598500699855695 4.663242670772349 0 0 0
365 1 23.381552829984567 31.498456905931153 3.1043337193726668 0 0 0
366 2 24.940319037475682 30.598501281264316 4.663244336869389 0 0 0
283 2 1.5587703555616264 33.29836888230837 4.663253521159238 0 0 0
284 2 4.676312279627659 33.29836884789624 4.6632537084418955 0 0 0
285 1 3.1175414124767067 34.1983242443856 3.1043469415888874 0 0 0
286 2 7.793852643209025 33.29836868058534 4.663252634883158 0 0 0
287 1 6.235082176977005 34.19832443118348 3.10434650174566 0 0 0
289 1 9.352621586920447 34.198324502833536 3.1043450435910307 0 0 0
288 2 10.911390268753092 33.29836834582301 4.663252305713538 0 0 0
290 1 12.470160851652825 34.198324444174006 3.1043470141888556 0 0 0
291 2 14.02892828097253 33.29836868545444 4.663256714192702 0 0 0
292 1 15.587700479261445 34.19832444002079 3.104352229486479 0 0 0
293 2 17.146472393879886 33.29836952573998 4.663258501558667 0 0 0
294 1 18.705240482959155 34.19832452964737 3.1043479580369744 0 0 0
367 2 20.264016538092058 33.29836896398187 4.66324828996723 0 0 0
368 1 21.822781700377075 34.19832452730634 3.1043355658705685 0 0 0
369 2 23.381552038670492 33.29836834573851 4.663240893021926 0 0 0
370 1 24.940324236651907 34.198324964182454 3.1043373033272594 0 0 0
295 1 1.5587704100452637 36.89819189004309 3.1043467994935288 0 0 0
296 1 4.676312015688915 36.898192059481886 3.1043469170524762 0 0 0
297 2 3.1175414288631864 35.998236587420315 4.663253691550432 0 0 0
298 1 7.793851978093832 36.89819220785702 3.10434572053542 0 0 0
299 2 6.235082754868469 35.99823651570499 4.663253347409658 0 0 0
301 2 9.352621772471307 35.9982362185454 4.663252030461324 0 0 0
300 1 10.911391175931495 36.89819219840508 3.104345278575626 0 0 0
302 2 12.470158769411329 35.99823609413099 4.663253998672295 0 0 0
303 1 14.02893063455587 36.898192143013866 3.104349872854717 0 0 0
304 2 15.587699577602544 35.998236889973974 4.6632588833222215 0 0 0
305 1 17.14647040413185 36.89819220378007 3.1043519538154296 0 0 0
306 2 18.705245323824872 35.998237175450996 4.663254583210961 0 0 0
371 1 20.264010875521905 36.898192256685476 3.1043414303658894 0 0 0
372 2 21.822785145337804 35.99823613710542 4.663242670772385 0 0 0
373 1 23.381552829984567 36.89819234318156 3.104333719372822 0 0 0
374 2 24.94031903747554 35.99823671851474 4.663244336869489 0 0 0
307 2 1.558770355562107 38.69810431955858 4.663253521159361 0 0 0
308 2 4.676312279628148 38.698104285146684 4.663253708442192 0 0 0
309 1 3.1175414124772427 39.59805968163626 3.104346941589089 0 0 0
310 2 7.793852643208682 38.69810411783624 4.663252634882901 0 0 0
311 1 6.2350821769767935 39.59805986843407 3.104346501745602 0 0 0
313 1 9.352621586920423 39.598059940084006 3.1043450435909627 0 0 0
312 2 10.911390268753454 38.698103783074146 4.663252305713518 0 0 0
314 1 12.470160851653054 39.59805988142495 3.104347014188944 0 0 0
315 2 14.028928280972464 38.69810412270511 4.663256714192694 0 0 0
316 1 15.587700479261246 39.59805987727155 3.1043522294864405 0 0 0
317 2 17.146472393879815 38.69810496299041 4.6632585015584755 0 0 0
318 1 18.70524048295935 39.59805996689785 3.1043479580370184 0 0 0
375 2 20.264016538092356 38.69810440123202 4.663248289967264 0 0 0
376 1 21.822781700377273 39.59805996455731 3.104335565870737 0 0 0
377 2 23.381552038670364 38.69810378298914 4.663240893022055 0 0 0
378 1 24.94032423665189 39.598060401433074 3.1043373033272457 0 0 0
319 1 1.5587704100458446 42.29792732729423 3.1043467994931784 0 0 0
320 1 4.676312015688724 42.29792749673276 3.1043469170523257 0 0 0
321 2 3.1175414288632397 41.397972024671226 4.663253691549986 0 0 0
322 1 7.793851978093321 42.29792764510707 3.1043457205355676 0 0 0
323 2 6.235082754867933 41.397971952955565 4.663253347409737 0 0 0
325 2 9.352621772470888 41.39797165579623 4.663252030461326 0 0 0
324 1 10.911391175931374 42.29792763565515 3.1043452785753853 0 0 0
326 2 12.470158769411126 41.39797153138226 4.663253998672424 0 0 0
327 1 14.028930634555957 42.29792758026402 3.1043498728547894 0 0 0
328 2 15.587699577602843 41.39797232722458 4.663258883322465 0 0 0
329 1 17.146470404131875 42.29792764103056 3.104351953815519 0 0 0
330 2 18.705245323825135 41.397972612702155 4.663254583210925 0 0 0
379 1 20.264010875521823 42.29792769393602 3.1043414303657695 0 0 0
380 2 21.822785145337843 41.397971574356426 4.663242670772429 0 0 0
381 1 23.38155282998476 42.297927780431884 3.1043337193727853 0 0 0
382 2 24.94031903747577 41.39797215576505 4.663244336869559 0 0 0
385 3 1.5587705399913026 44.09783980230152 1.5454400874091956 0 0 0
386 3 4.676311893373142 44.097839571034896 1.5454400684795442 0 0 0
387 3 7.793851372182033 44.09783950352614 1.5454388149545144 0 0 0
388 3 10.911392046901765 44.097839830650734 1.545438495857507 0 0 0
389 3 14.028932964135516 44.09783954781111 1.5454429647020995 0 0 0
390 3 17.14646840525238 44.09783887019379 1.5454447567875513 0 0 0
529 3 20.26400515738762 44.0978399920312 1.5454346924536453 0 0 0
530 3 23.3815538128488 44.09784132877647 1.545427503442914 0 0 0
391 3 3.1175415236214974 46.79770741997377 1.5454401689739432 0 0 0
392 3 6.235081711776164 46.79770719848441 1.5454395975117465 0 0 0
393 3 9.352621400972106 46.797707374722904 1.5454381944181603 0 0 0
394 3 12.4701628994983 46.797707552969236 1.5454402282279343 0 0 0
395 3 15.587701399622304 46.79770682177046 1.5454451348781875 0 0 0
396 3 18.70523561408867 46.797706900432864 1.5454408816248524 0 0 0
531 3 21.82277815024068 46.79770857023372 1.5454291863012979 0 0 0
532 3 24.94032962472578 46.79770910557632 1.5454309579072416 0 0 0
397 3 1.5587705399915077 49.497575239551416 1.5454400874097731 0 0 0
398 3 4.676311893373409 49.4975750082843 1.5454400684794647 0 0 0
399 3 7.793851372181843 49.49757494077751 1.5454388149544436 0 0 0
400 3 10.911392046901309 49.497575267901745 1.5454384958574818 0 0 0
401 3 14.02893296413537 49.49757498506207 1.5454429647020362 0 0 0
402 3 17.146468405252254 49.49757430744391 1.5454447567874987 0 0 0
533 3 20.26400515738787 49.49757542928161 1.5454346924535605 0 0 0
534 3 23.381553812848843 49.4975767660268 1.5454275034428162 0 0 0
403 3 3.1175415236211297 52.19744285722352 1.545440168973991 0 0 0
404 3 6.235081711776743 52.197442635735285 1.5454395975116366 0 0 0
405 3 9.352621400972698 52.197442811972785 1.5454381944182158 0 0 0
406 3 12.47016289949802 52.197442990219905 1.545440228228047 0 0 0
407 3 15.587701399622057 52.19744225902054 1.5454451348780556 0 0 0
408 3 18.70523561408916 52.197442337683 1.5454408816246286 0 0 0
535 3 21.822778150240683 52.19744400748372 1.545429186301213 0 0 0
536 3 24.940329624725564 52.197444542826176 1.5454309579072674 0 0 0
409 3 1.558770539991553 54.897310676802235 1.5454400874093364 0 0 0
410 3 4.676311893372946 54.89731044553495 1.5454400684793568 0 0 0
411 3 7.793851372181609 54.89731037802777 1.5454388149545473 0 0 0
412 3 10.911392046901712 54.89731070515153 1.5454384958577199 0 0 0
413 3 14.028932964135635 54.89731042231248 1.545442964702022 0 0 0
414 3 17.146468405251714 54.89730974469484 1.545444756787548 0 0 0
537 3 20.264005157387686 54.89731086653246 1.5454346924538438 0 0 0
538 3 23.381553812849027 54.8973122032774 1.5454275034429874 0 0 0
477 3 3.1175415236210595 57.59717829447432 1.5454401689739634 0 0 0
479 3 6.2350817117762265 57.59717807298578 1.5454395975113566 0 0 0
481 3 9.352621400972968 57.59717824922393 1.5454381944182098 0 0 0
482 3 12.470162899498188 57.597178427470126 1.545440228227871 0 0 0
484 3 15.587701399621585 57.597177696271274 1.5454451348779226 0 0 0
486 3 18.705235614088824 57.59717777493468 1.545440881624888 0 0 0
560 3 21.822778150240932 57.59717944473465 1.5454291863011083 0 0 0
562 3 24.940329624725635 57.59717998007757 1.5454309579069616 0 0 0
475 3 1.5587705399914134 60.29704611405264 1.5454400874097718 0 0 0
476 3 4.676311893373428 60.29704588278493 1.5454400684794847 0 0 0
478 3 7.793851372181933 60.29704581527839 1.5454388149546268 0 0 0
480 3 10.91139204690188 60.29704614240213 1.5454384958575729 0 0 0
483 3 14.028932964135768 60.29704585956253 1.5454429647019412 0 0 0
485 3 17.146468405252172 60.2970451819456 1.545444756787519 0 0 0
559 3 20.26400515738791 60.29704630378268 1.5454346924537872 0 0 0
561 3 23.38155381284851 60.29704764052761 1.5454275034429026 0 0 0
487 3 3.117541523621596 62.996913731724916 1.5454401689739432 0 0 0
488 3 6.235081711776887 62.996913510236105 1.5454395975116033 0 0 0