LAMMPS data file via write_data, version 21 Nov 2023, timestep = 6652, units = metal

9294 atoms
3 atom types

0 311.7531873552085 xlo xhi
0 86.39557785536556 ylo yhi
0 50 zlo zhi
0 0 0 xy xz yz

Masses

1 95.94
2 32.065
3 32.065

Atoms # atomic

9294 3 1.5587924961552702 0.9000019270551647 1.545558622628972 0 0 0
6136 3 4.676254453205613 0.9000002350317503 1.5455544372434074 0 0 0
6141 3 7.79380137316956 0.8999730115138175 1.545521417767861 0 0 0
6144 3 10.911335333773037 0.899962184914067 1.5455113127266182 0 0 0
6146 3 14.028875549040407 0.8999554401477449 1.5455043102879154 0 0 0
6147 3 17.146443375349456 0.8999644263992325 1.5455266409484438 0 0 0
6572 3 20.26394672512466 0.8999622727014533 1.545410101016299 0 0 0
6703 3 23.3814529226354 0.8999816964394948 1.545538055944311 0 0 0
6150 3 3.1175448006061415 3.5998543850175104 1.5454662069326224 0 0 0
6109 3 6.23501753455705 3.5998676117485866 1.545570820841039 0 0 0
6115 3 9.352552269232573 3.599851028444612 1.5455328250559452 0 0 0
6162 3 12.47008520366257 3.5998409329778682 1.5455136348630356 0 0 0
6220 3 15.587634155249937 3.5998222232183448 1.545500102501686 0 0 0
6229 3 18.70518811111098 3.599787755802773 1.5455236606100722 0 0 0
6979 3 21.822709783941864 3.5997897339428184 1.5455332637750316 0 0 0
6977 3 24.94028324685055 3.599852168463003 1.5455463015301378 0 0 0
6207 3 1.5588500354989232 6.299676356562277 1.5456048939724738 0 0 0
6177 3 4.676293135481968 6.29969195383205 1.5454947162925787 0 0 0
6175 3 7.793770680490956 6.299752744354761 1.5456224304254036 0 0 0
6170 3 10.911282146661684 6.299733332402563 1.54556731868609 0 0 0
6164 3 14.028844719210152 6.299696572607394 1.5455144323846106 0 0 0
6184 3 17.146399450968822 6.2996785270901015 1.5454950880023193 0 0 0
7005 3 20.263948991895965 6.299670525624756 1.5454949565801281 0 0 0
7003 3 23.381510163249423 6.299670401012131 1.545523725595859 0 0 0
6119 3 3.117604501190184 8.999543432540133 1.5456407591148293 0 0 0
6108 3 6.235043417468572 8.999550517296015 1.5456845316454075 0 0 0
6139 3 9.352548229654705 8.999568524034157 1.5454812536497142 0 0 0
6203 3 12.47004471496524 8.999565961596142 1.5455633956077734 0 0 0
6254 3 15.587604277626552 8.99955818671489 1.5455085873603702 0 0 0
6396 3 18.705163751306422 8.99954951485013 1.5454876087349725 0 0 0
6937 3 21.822705649751978 8.99953403777698 1.5454824915876837 0 0 0
6936 3 24.94024862778183 8.99949855230388 1.5455120839738334 0 0 0
6397 3 1.5588387172282971 11.699400297522994 1.545570354547403 0 0 0
6398 3 4.67631649776656 11.699399790444438 1.5455025229274477 0 0 0
6399 3 7.793786836586598 11.699372709297947 1.5456483342964613 0 0 0
6407 3 10.91131520743196 11.699407066143717 1.5456165733451608 0 0 0
6409 3 14.028816315266047 11.699434016181035 1.5455536455824797 0 0 0
6410 3 17.14638154388389 11.699411489950894 1.5455002758860714 0 0 0
6969 3 20.263946624460424 11.699424358182146 1.5455001189956612 0 0 0
6968 3 23.38144721786259 11.699405973117644 1.545493410695469 0 0 0
6887 3 3.1175969595447883 14.399229460271181 1.545600901425122 0 0 0
6890 3 6.23505668322472 14.399224669180764 1.5455040663720188 0 0 0
6892 3 9.352550140067972 14.399259215380978 1.5456265659136452 0 0 0
6877 3 12.470063579519802 14.399251067494157 1.5454493816705666 0 0 0
6876 3 15.587583270980012 14.39926458510249 1.5455286172633562 0 0 0
6859 3 18.705175771950685 14.399262597719598 1.5454994474068513 0 0 0
6392 3 21.82269072123196 14.399249678771787 1.545359906339557 0 0 0
6416 3 24.940195146710785 14.399248028770083 1.5454708375619177 0 0 0
6884 3 1.5587879992044729 17.099127122377194 1.5455234983698065 0 0 0
6885 3 4.676303280354912 17.09908772849542 1.5455899373317865 0 0 0
6888 3 7.793786774295197 17.099073803166128 1.5455968291937665 0 0 0
6891 3 10.9113203513548 17.099080827844748 1.5455692624935768 0 0 0
6893 3 14.02882851591724 17.09908214249798 1.5455307771545574 0 0 0
6874 3 17.14638032022371 17.099111561986852 1.545472685454862 0 0 0
6148 3 20.263932612016998 17.099081588862404 1.5454736191624623 0 0 0
6400 3 23.381447630573422 17.099079211551675 1.545458748485757 0 0 0
6860 3 3.117522042107637 19.799021458869515 1.5455760027859307 0 0 0
6802 3 6.235034909690956 19.798988273240973 1.5455707165062798 0 0 0
6803 3 9.352543551258202 19.798976098985776 1.5455517548764457 0 0 0
6804 3 12.470071158347272 19.798977079400412 1.5455157311471173 0 0 0
6805 3 15.587604517089742 19.798973884550172 1.5454753422154432 0 0 0
6806 3 18.705153883931825 19.79897221361955 1.5454474498052324 0 0 0
6470 3 21.822691065708433 19.798972883528645 1.5454319145848139 0 0 0
6447 3 24.940227050717958 19.798973813797797 1.5454181183986846 0 0 0
5315 2 1.5587597833456488 0.8999653700238418 4.663355658174972 0 0 0
3009 1 3.1175280396816016 1.8000237745516912 3.1044871290357525 0 0 0
5317 2 4.6762870399381 0.8999519305425463 4.6633495125461915 0 0 0
3057 1 6.235044442666313 1.7999277599782728 3.1044450048916663 0 0 0
5321 2 7.7938175884774505 0.8999580148411038 4.663336755280058 0 0 0
3097 1 9.352574364108388 1.799923342180797 3.104426435115287 0 0 0
3105 1 12.470107597891744 1.7999192737264496 3.1044133666332234 0 0 0
5324 2 10.911346746677117 0.8999651361156575 4.663328153199708 0 0 0
5122 2 14.02887860199088 0.8999600424508921 4.663316808554511 0 0 0
3139 1 15.587649401948807 1.7999155730662335 3.1044100713799687 0 0 0
5129 2 17.146407748888542 0.8999674323586123 4.663321680269499 0 0 0
3138 1 18.70525639384052 1.7998678279717595 3.1044447650876945 0 0 0
2675 1 21.822629505075366 1.7998698337766672 3.1044528131895675 0 0 0
3964 2 23.381475575101465 0.8999699398247576 4.663332233507931 0 0 0
2677 1 24.940241746276147 1.7999307761726067 3.1044332808902997 0 0 0
6479 3 3.5806311842875696e-05 14.399266018606111 1.5455003582137092 1 0 0
3140 1 1.5588535459645163 4.499740536367388 3.104503011998621 0 0 0
3197 1 4.676227492731199 4.499821481153125 3.1044856099789753 0 0 0
5141 2 6.2350415285208936 3.599826311776611 4.663355453006787 0 0 0
3170 1 7.793807562677758 4.4997988092105485 3.1044672277417735 0 0 0
5173 2 9.352577689457675 3.599817952384456 4.663351470850388 0 0 0
3142 1 10.911324216815784 4.4997934173538505 3.104438618809815 0 0 0
5174 2 12.470107171850808 3.59982477499276 4.663326769552609 0 0 0
3189 1 14.028868498238236 4.49977983142698 3.1044146152382206 0 0 0
5202 2 15.587640053672935 3.599822792604763 4.66331669806127 0 0 0
3130 1 17.146407710466324 4.499766545999086 3.1044059233424344 0 0 0
2554 1 20.263943556511713 4.499774874413594 3.104419056970363 0 0 0
5204 2 18.70516714013676 3.599823341077793 4.663318677479352 0 0 0
4270 2 21.822707281613063 3.599821573012589 4.663331239314713 0 0 0
2555 1 23.381476341740584 4.49976443814829 3.1044304996539003 0 0 0
4274 2 24.940245300612105 3.599828217007912 4.663342075551433 0 0 0
1755 1 4.766704929152363e-06 17.999093122245963 3.1044115475131364 1 0 0
5206 2 1.5587447585182947 6.299696783721917 4.663376537220322 0 0 0
3131 1 3.117631626299556 7.199604756428091 3.104538191281195 0 0 0
3173 1 6.234944238046066 7.199595502542388 3.1045583472707095 0 0 0
5210 2 7.793821743316531 6.299681340924 4.663395703887843 0 0 0
3063 1 9.352554478816119 7.199751300739071 3.104510776256954 0 0 0
3045 1 12.470095425652685 7.199643818044672 3.1044494596646772 0 0 0
5213 2 10.91133680622922 6.299682447458584 4.663360745423732 0 0 0
5220 2 14.028880828022572 6.299680741605427 4.663331294963317 0 0 0
3033 1 15.587632761618929 7.199639653061498 3.1044095493035986 0 0 0
5199 2 17.146410195254067 6.299683558657737 4.663308115719376 0 0 0
3120 1 18.70517486419381 7.199636699198377 3.104395754077193 0 0 0
4248 2 20.263942456682244 6.299693358844036 4.663311306177459 0 0 0
2608 1 21.822717180035806 7.199635094587336 3.1044006898961807 0 0 0
4251 2 23.38147063324035 6.299690406994232 4.663318198325193 0 0 0
2610 1 24.94032178746821 7.199582683879884 3.1044390796785195 0 0 0
3111 1 1.5587751846909208 9.899491070340416 3.1044763785202156 0 0 0
1731 1 1.5339262993067753e-05 12.599364304549008 3.1044165116563485 1 0 0
3104 1 4.676307507502288 9.899616193639234 3.10457006221387 0 0 0
5492 2 3.117514510171613 8.999552048825494 4.663412834239672 0 0 0
5541 2 6.235053273598853 8.999539051275725 4.663435447346763 0 0 0
3012 1 7.793890284760718 9.899442195623736 3.10455796484203 0 0 0
3091 1 10.911257949469922 9.899463573899299 3.104505704126242 0 0 0
5545 2 12.470113522985487 8.999547483210538 4.663361681922953 0 0 0
3079 1 14.02884566380972 9.899510328523712 3.10443765860018 0 0 0
5547 2 15.587637650634798 8.999546153784687 4.663321357800333 0 0 0
3062 1 17.146395994573208 9.899499429702587 3.104403882186585 0 0 0
2607 1 20.263943538733024 9.899501427489774 3.1043901582778193 0 0 0
5529 2 18.705175558633474 8.999547801180668 4.663300888190895 0 0 0
4107 2 21.82270319636502 8.999546200407602 4.663301565611584 0 0 0
2604 1 23.381466549886312 9.899486353800619 3.104390927974089 0 0 0
4113 2 24.94022589783038 8.999543205730166 4.663306364808133 0 0 0
5532 2 1.5587367879181973 11.699417266896399 4.663365521989778 0 0 0
3041 1 3.1176159522683116 12.599310951881211 3.104517088093995 0 0 0
3198 1 6.234986296979558 12.599371405348949 3.104522533753263 0 0 0
5372 2 7.793786994531021 11.699406709890516 4.663414517423975 0 0 0
3160 1 9.352557806228686 12.59935678619227 3.1045228023015223 0 0 0
3155 1 12.470088528515534 12.59944108221107 3.1044942676867304 0 0 0
5373 2 10.911353830400786 11.699396560432557 4.663394864047802 0 0 0
5377 2 14.028874438985662 11.699403838892621 4.663351034103946 0 0 0
3154 1 15.58762803944459 12.599357643949268 3.1044298810181212 0 0 0
5379 2 17.14640906237385 11.699402133739484 4.663320078873462 0 0 0
3144 1 18.705162850070536 12.599355774355157 3.1044014790188217 0 0 0
4288 2 20.263945342019756 11.699404730313663 4.663294958832046 0 0 0
3050 1 21.82270300673394 12.599443423888335 3.10440740038099 0 0 0
4283 2 23.381465864777894 11.69939872413363 4.663287626142501 0 0 0
3056 1 24.940236706964303 12.599344821256006 3.1043804423975065 0 0 0
2583 1 1.5587772629751004 15.299217442599955 3.1044351859769566 0 0 0
3180 1 23.38146592026466 20.698939405946483 3.1043279399076824 0 0 0
2582 1 4.676373480333102 15.299171263448711 3.104521921668571 0 0 0
4834 2 3.1174988209711687 14.399278666955304 4.663375084370201 0 0 0
2580 1 7.793732624132174 15.299164563856936 3.1045323833424123 0 0 0
4879 2 9.352581152687113 14.399281997961928 4.663406722501052 0 0 0
2673 1 10.91139726630671 15.299172674096152 3.1045012650280177 0 0 0
2669 1 14.028778876160432 15.299167608677257 3.104458500857883 0 0 0
4893 2 15.587647171459764 14.399277770946632 4.663322758156622 0 0 0
2695 1 17.146394303543637 15.299221140910731 3.104395066603768 0 0 0
3124 1 20.264008432054062 15.299166233619566 3.1044000690764744 0 0 0
4845 2 18.705170025085504 14.399276662268788 4.663293701139812 0 0 0
3022 1 23.3813847727977 15.299163561419359 3.1043863875501803 0 0 0
3320 2 24.940236754476388 14.399272651596117 4.663265553870923 0 0 0
4828 2 1.55873852801553 17.099126434246266 4.663341980394288 0 0 0
2694 1 3.1175194118049365 17.999082902579147 3.1044579887020047 0 0 0
4832 2 4.676263982330759 17.099134421572824 4.663385435490461 0 0 0
2693 1 6.235044112880178 17.999082877069 3.104489221737733 0 0 0
4836 2 7.793813966576267 17.09912815772416 4.6633936054484595 0 0 0
2692 1 9.352564075373895 17.999061055068825 3.104467954103476 0 0 0
2636 1 12.470092907441224 17.99907852543087 3.1044398088602074 0 0 0
4872 2 10.911341646081732 17.099131831134546 4.663366813398076 0 0 0
4885 2 14.028883070793283 17.099128647000814 4.6633255542711955 0 0 0
2634 1 15.587624751942457 17.999066385481484 3.104392292190829 0 0 0
4895 2 17.146408311352758 17.09913239929953 4.663291792814203 0 0 0
2633 1 18.705164234544554 17.999065139449833 3.1043643469106517 0 0 0
3243 2 20.263934500554853 17.099125842639634 4.663268561393739 0 0 0
3182 1 21.82269823749782 17.999074808403886 3.104355524134488 0 0 0
3302 2 23.381477134573988 17.09912485004431 4.663253614106265 0 0 0
3145 1 24.940231118219096 17.99906452862882 3.1043328320404497 0 0 0
2631 1 1.5587601763103505 20.699041129560527 3.104478407731166 0 0 0
2630 1 4.676290611417138 20.69895535100722 3.1044888280864287 0 0 0
4850 2 3.117504605110912 19.79898452720367 4.663369661835045 0 0 0
4854 2 6.235048346326496 19.798992199093636 4.663393337415958 0 0 0
2627 1 7.793795176165783 20.698953134724718 3.104472310902984 0 0 0
4715 2 9.352575392557702 19.79898719765662 4.663363541727068 0 0 0
2642 1 10.911324621744228 20.698944388596928 3.1044391643378386 0 0 0
4720 2 12.47011110829199 19.798997039442536 4.66333253385771 0 0 0
2644 1 14.028857537757956 20.698943312339967 3.1043985873637894 0 0 0
4722 2 15.587642022399224 19.798987594106716 4.663288595156162 0 0 0
2661 1 17.146393145590036 20.698937242529006 3.104361709450602 0 0 0
4723 2 18.705172570691595 19.798986400302336 4.663260657411006 0 0 0
3184 1 20.26392986564724 20.698939243315117 3.104342077217878 0 0 0
3777 2 21.82270513170024 19.7989941364136 4.663248771585269 0 0 0
3717 2 24.940238298399635 19.798985321433246 4.663231325198552 0 0 0
6506 3 3.394745655423658e-05 19.799030894506334 1.545535928191691 1 0 0
6733 3 5.045778911257955e-05 8.999539979254449 1.545525583002592 1 0 0
1763 1 1.9567080981603965e-05 7.199637124825682 3.1044401241131263 1 0 0
6649 3 6.08979579395542e-05 3.599844484029831 1.5455565308206884 1 0 0
6809 3 1.5587820752245625 22.49886931913662 1.5454544085703499 0 0 0
6811 3 4.676271718211696 22.498896464985247 1.5456245625687848 0 0 0
6814 3 7.79376059160996 22.49888846111629 1.545590434142533 0 0 0
6816 3 10.911297606721163 22.498864272603825 1.5455363611496475 0 0 0
6817 3 14.028832499716028 22.49885998958286 1.5454929487708378 0 0 0
6798 3 17.14637535230425 22.498853571567416 1.5454556128748607 0 0 0
6427 3 20.263918924545543 22.498851818423653 1.545432980864994 0 0 0
6430 3 23.381461950063624 22.498851638909436 1.545418779950918 0 0 0
6785 3 3.1175702445557993 25.19870217576166 1.5456354869333404 0 0 0
6787 3 6.235047583973284 25.198737834902563 1.5454894167031596 0 0 0
6788 3 9.35251203364145 25.198755356522497 1.54559671431193 0 0 0
6835 3 12.470051137582512 25.198747628503643 1.545536754375043 0 0 0
6923 3 15.587595818847591 25.19873710146708 1.5454887135596123 0 0 0
6933 3 18.70514114122289 25.198731304929808 1.5454533361634437 0 0 0
6438 3 21.822689481117948 25.198727289972474 1.5454315676907495 0 0 0
6278 3 24.940237858752205 25.19872891530852 1.5454223486357466 0 0 0
6934 3 1.55879512314521 27.898569910943593 1.5455756867900934 0 0 0
6935 3 4.676344349055031 27.898571093288847 1.5456650876332385 0 0 0
7032 3 7.793789970070516 27.898623668870194 1.5456870633317732 0 0 0
7033 3 10.911283026974205 27.89864002108256 1.5456186796709805 0 0 0
7034 3 14.02881863168568 27.898617312712794 1.5455465283722398 0 0 0
7035 3 17.146357567414874 27.898612810639122 1.5454964748132636 0 0 0
6358 3 20.263911293493045 27.89860034140994 1.5454608642339591 0 0 0
6356 3 23.381465562029863 27.89860103333696 1.5454436304394994 0 0 0
7081 3 5.124825795770759e-05 41.39787153951965 1.5455500358223722 1 0 0
6534 3 3.117602713112395 30.598428817617588 1.5456218400027226 0 0 0
6535 3 6.235092519843369 30.598445366249056 1.545549653663009 0 0 0
6536 3 9.35255271726302 30.598456492307434 1.5455475555043163 0 0 0
6541 3 12.47003980841541 30.59850613924474 1.5456578249101034 0 0 0
6542 3 15.58755776775356 30.59849566277635 1.5455743784212796 0 0 0
6544 3 18.70512868125708 30.598467466697418 1.5455038551948732 0 0 0
8593 3 21.822688912442462 30.598465434839664 1.5454742630956595 0 0 0
8594 3 24.9402513305499 30.598475394464113 1.545472270187734 0 0 0
6546 3 1.5588036824095848 33.29829585385576 1.5455642216239314 0 0 0
6547 3 4.676338740342782 33.29825827431193 1.5456411987982 0 0 0
6532 3 7.7938532336598545 33.29830119094647 1.5456924973617556 0 0 0
6548 3 10.91132595111441 33.29829926701558 1.5457185014663366 0 0 0
6531 3 14.028828876010538 33.29831675131582 1.5454969492760573 0 0 0
6529 3 17.146333698512027 33.2983265588408 1.5455671867442362 0 0 0
8599 3 20.263905861696873 33.29832472235765 1.545507603983119 0 0 0
8600 3 23.38147399727718 33.298327968473984 1.5454956028472877 0 0 0
4385 2 24.9402319156288 41.39787611291087 4.663340920099731 0 0 0
6515 3 3.1175976347712426 35.99816925445168 1.5456113533849736 0 0 0
6516 3 6.235082763781461 35.99817401192362 1.5456842742210593 0 0 0
6517 3 9.352574565885043 35.99813869027493 1.5455447681481764 0 0 0
6647 3 12.470068001718614 35.99811760234113 1.5456783381410115 0 0 0
6663 3 15.587592689148762 35.99814730842051 1.54560689063527 0 0 0
6646 3 18.70513575716538 35.998185018463516 1.5455418265702923 0 0 0
8586 3 21.822691031177307 35.99818693069642 1.5455182983189897 0 0 0
8585 3 24.940272953484087 35.998180573662694 1.545539608469887 0 0 0
6644 3 1.5588138545071997 38.6980196039602 1.5455739628035252 0 0 0
6629 3 4.676300694573084 38.69800678374422 1.5455094949415582 0 0 0
6630 3 7.79379455243518 38.697964508024505 1.5456772996452999 0 0 0
6631 3 10.911324827591056 38.6979520699247 1.5456507826693051 0 0 0
6633 3 14.028877623827295 38.6980247495854 1.5456310942444755 0 0 0
6690 3 17.1463762655672 38.69806930790539 1.5456190965125958 0 0 0
8481 3 20.263888795100605 38.69805931906321 1.545569228289024 0 0 0
8480 3 23.38145718584419 38.698030421763974 1.545528100402095 0 0 0
6694 3 3.1175481866942945 41.397839006006734 1.5454771898991224 0 0 0
6695 3 6.23501545758944 41.397806910616225 1.5456402822210102 0 0 0
6696 3 9.352581784026249 41.39783809795012 1.545599090421201 0 0 0
6697 3 12.470134317422795 41.39784467051056 1.5456153675398427 0 0 0
6699 3 15.587636734618412 41.39786369052744 1.5454885898761705 0 0 0
6701 3 18.7051372335243 41.39787070220428 1.5454672850771 0 0 0
8475 3 21.822656898987198 41.39788857567023 1.545561421243951 0 0 0
8474 3 24.940228175677067 41.39787164327041 1.5455258841773631 0 0 0
7011 3 3.0063818031984856e-05 30.598431432862565 1.5455444200035526 1 0 0
2450 1 3.1174361675884006 23.398763448085536 3.1045310217647235 0 0 0
4704 2 4.676286507115305 22.498854198444672 4.663398491520946 0 0 0
2446 1 6.235032062306247 23.398916993212847 3.1045220508351323 0 0 0
4689 2 7.7938034461028405 22.498851641091278 4.663384187097467 0 0 0
2442 1 9.352559062512109 23.39881876701304 3.104474242136106 0 0 0
2412 1 12.470086032900921 23.398816126045514 3.1044258248771506 0 0 0
4681 2 10.911344178986557 22.49884993306263 4.663353029279762 0 0 0
4684 2 14.028876122840746 22.498852440543146 4.663306899426515 0 0 0
2410 1 15.58762277573257 23.39881076514877 3.104381939148448 0 0 0
4686 2 17.146406041558627 22.4988481353306 4.66326937905488 0 0 0
2409 1 18.705158646588682 23.398808565234262 3.104350477319471 0 0 0
3608 2 20.263937142553647 22.498851814148036 4.663246678809369 0 0 0
3171 1 21.822697667273804 23.398807836299486 3.10433198125029 0 0 0
3613 2 23.381472617462382 22.49885187040664 4.663232645017329 0 0 0
3037 1 24.940236268539014 23.398808726597828 3.1043218040232 0 0 0
2405 1 1.5587734878509403 26.098672167423462 3.1044917235044873 0 0 0
2403 1 4.676384766538637 26.098616217414534 3.1045489423393002 0 0 0
4739 2 3.1175224942628192 25.19871613157361 4.663407358849468 0 0 0
2418 1 7.793719863980757 26.09864620248911 3.1045377435884696 0 0 0
4750 2 9.352571205332902 25.19871704858836 4.6633934909075725 0 0 0
2433 1 10.911306786777494 26.09869408569198 3.1044803310540128 0 0 0
5012 2 12.470102612074687 25.198712681299625 4.663349288103318 0 0 0
2432 1 14.028849136901608 26.098682110673987 3.104428543158294 0 0 0
5015 2 15.587640183633619 25.198708918962815 4.6633024338448505 0 0 0
2402 1 17.14638611051118 26.0986801619852 3.104382651780578 0 0 0
3069 1 20.263926745332977 26.098674911549217 3.1043527310311494 0 0 0
5017 2 18.705170608098438 25.19871142757061 4.663266877755845 0 0 0
3668 2 21.822705398801244 25.198712481435628 4.6632453237396545 0 0 0
3127 1 23.38146805197569 26.098675410248102 3.1043364661778794 0 0 0
3543 2 24.940238532567697 25.198711949049336 4.663236563094684 0 0 0
5019 2 1.5587341840904123 27.89857523045917 4.663398815311566 0 0 0
2942 1 3.1175314196752053 28.79851345625086 3.104519421996313 0 0 0
5023 2 4.676275320995829 27.898553110769274 4.663438307966971 0 0 0
2940 1 6.235049267338777 28.79863633181882 3.1045940338673628 0 0 0
5028 2 7.793817651205308 27.89855444922486 4.663441522422376 0 0 0
2939 1 9.352563335201776 28.79862798352117 3.104572094709622 0 0 0
2937 1 12.470093235919375 28.798553134547426 3.1045051530878065 0 0 0
5060 2 10.911345799578216 27.898568415870525 4.66341658491672 0 0 0
5096 2 14.028880425886461 27.898567582220355 4.663366127952641 0 0 0
2938 1 15.587608286329175 28.798552016986488 3.1044397741364014 0 0 0
5030 2 17.146403533414727 27.8985745428778 4.663309792349179 0 0 0
2941 1 18.705154096341452 28.79854125324087 3.104392230085398 0 0 0
3563 2 20.26393875063398 27.89857190385221 4.6632749016181805 0 0 0
3168 1 21.822696657339495 28.79853934314118 3.1043638025770375 0 0 0
3807 2 23.381471934913968 27.89857358382428 4.663257371429079 0 0 0
3196 1 24.940240210701127 28.79854278794495 3.104357424771405 0 0 0
2499 1 1.5587822871576174 31.498387929251795 3.1044747877111805 0 0 0
3101 1 20.263843600047537 42.29777905071039 3.1044875168951065 0 0 0
2498 1 4.676387329673309 31.498340407385538 3.1045666707575648 0 0 0
4961 2 3.1175112715821736 30.59843516648196 4.663414813329439 0 0 0
2497 1 7.793831318094598 31.498336003520762 3.104566405063131 0 0 0
2496 1 10.911222347674325 31.498354542619808 3.1046003793119503 0 0 0
4978 2 12.470114696050507 30.598440603707573 4.6634291152947975 0 0 0
2662 1 14.028838577055485 31.498506027041962 3.104530385204494 0 0 0
4969 2 15.587633006174968 30.5984364753907 4.663368003151327 0 0 0
2963 1 17.146383022370237 31.498401991732553 3.1044491908732983 0 0 0
3076 1 20.263923533182883 31.498401886006135 3.1044002526927414 0 0 0
4972 2 18.70517542288251 30.59843309530607 4.663320660467234 0 0 0
3419 2 21.82270454074721 30.598434478363792 4.663288050923324 0 0 0
3070 1 23.381469146176443 31.498402671327213 3.104384818506579 0 0 0
3426 2 24.940237469423856 30.598435798169465 4.663285459047319 0 0 0
4365 2 21.822708783606043 41.3978888671329 4.6633546704688715 0 0 0
4974 2 1.5587482049050965 33.298296389594185 4.663379959897625 0 0 0
2901 1 3.1175479155349506 34.19824276249146 3.1045016334138476 0 0 0
4976 2 4.676269943692039 33.29829063416663 4.663443136380148 0 0 0
2900 1 6.235053880594866 34.1982480663696 3.1045634385803877 0 0 0
6051 2 7.793818080300073 33.29828058789756 4.663456252627365 0 0 0
2897 1 9.352585610571934 34.198350174460955 3.1046037781650293 0 0 0
2896 1 12.47018774523405 34.19818764668582 3.104587743608526 0 0 0
6030 2 10.911346590836231 33.29830139081406 4.663470859780842 0 0 0
2923 1 15.587542860450641 34.19821503839658 3.1045135006451634 0 0 0
5977 2 17.146410324038 33.29830359830737 4.663362848768396 0 0 0
2922 1 18.70514651688953 34.1982663761699 3.1044382255258096 0 0 0
3470 2 20.263934856654448 33.2982998278419 4.663320787243749 0 0 0
3008 1 21.822695276974848 34.19826250867805 3.104410281505536 0 0 0
3475 2 23.381463421368323 33.29829467121616 4.663312358381273 0 0 0
3059 1 24.940240659215796 34.198258503011 3.104423108406728 0 0 0
6593 3 3.472314294292908e-05 25.198692515606947 1.5455703262702163 1 0 0
2921 1 1.5587770582214822 36.89810503954448 3.1044709568806255 0 0 0
2920 1 4.676304349665699 36.898208002561624 3.104559918493536 0 0 0
5999 2 3.1175165010701007 35.998149249498546 4.663405242668838 0 0 0
5911 2 6.235038090908636 35.998158613728414 4.663458924669609 0 0 0
2919 1 7.793906622333849 36.89804946033514 3.104596730396324 0 0 0
2917 1 10.911257331230244 36.89803732518084 3.1045815046887353 0 0 0
6026 2 12.470116328347366 35.998155692309 4.663449839170031 0 0 0
2860 1 14.02886115635019 36.898117041528074 3.104531324440212 0 0 0
6022 2 15.58765400023036 35.99815529152731 4.663403653591777 0 0 0
2857 1 17.146388116829083 36.89811926263171 3.104478208092821 0 0 0
3179 1 20.2639199999984 36.89812508390342 3.1044422205550255 0 0 0
6042 2 18.70517322036813 35.99815920190124 4.6633601417836505 0 0 0
3185 1 23.38147496453252 36.898119807694826 3.104428601408163 0 0 0
3786 2 21.822703124087024 35.998159668573194 4.663330935077349 0 0 0
4417 2 24.940231839739674 35.998161411065965 4.663334836947732 0 0 0
3114 1 23.381464703767815 42.29783616670962 3.104437089945233 0 0 0
6059 2 1.558759110451434 38.69801986314365 4.663359643318629 0 0 0
2853 1 3.117589310657837 39.59799345623579 3.104493718562611 0 0 0
2868 1 6.234967904223724 39.597892761359155 3.104564968499644 0 0 0
6044 2 7.793810199441838 38.69802024588538 4.6634520314462335 0 0 0
2870 1 9.352571303064414 39.597958742833576 3.104539968032844 0 0 0
2885 1 12.470097662602996 39.59794556735411 3.104531261474678 0 0 0
6084 2 10.911342308647084 38.698004981928406 4.66344691839074 0 0 0
6065 2 14.028880951844869 38.69801666624876 4.663433042800062 0 0 0
2969 1 15.587627485639423 39.59806273300361 3.1045386610120116 0 0 0
5722 2 17.146407894348098 38.69800501343565 4.663392114002743 0 0 0
2967 1 18.705157786018077 39.59806640615317 3.1045101361989134 0 0 0
4477 2 20.263937323181 38.69801269953196 4.663364917549012 0 0 0
3172 1 21.822697491364057 39.59797425341645 3.104454187840139 0 0 0
4442 2 23.381471974845276 38.69801561526165 4.663347564440154 0 0 0
3038 1 24.940235649887473 39.59796220189984 3.1044361289187083 0 0 0
2966 1 1.558847189334024 42.297764429333576 3.1044898759569963 0 0 0
2999 1 4.676205704436273 42.297763121334896 3.1045269773935895 0 0 0
5626 2 6.235053413321328 41.39787335851074 4.66341216589309 0 0 0
2990 1 7.793807404584626 42.29780192386284 3.1044967051111754 0 0 0
5632 2 9.35258585488167 41.39788767076518 4.663417089125049 0 0 0
2987 1 10.911357344751229 42.29782082272608 3.1044942068377237 0 0 0
5635 2 12.470109722869651 41.39787990987143 4.663411696711507 0 0 0
2985 1 14.028946091969669 42.297774399789986 3.1045204977490704 0 0 0
2964 1 17.146397224413718 42.29775014535419 3.104481162407138 0 0 0
7055 3 2.7787554280405896e-05 35.99815447994985 1.545538214515732 1 0 0
1573 1 3.6310439998548554e-06 34.198245237455076 3.104446140973902 1 0 0
1650 1 7.526765176279346e-05 23.398762378611423 3.104477629961208 1 0 0
1561 1 2.6817532506741403e-06 39.59796125861028 3.104444235643715 1 0 0
7080 3 1.558786396194791 44.0976828033996 1.5455633187204796 0 0 0
7079 3 4.676277634653845 44.0976710927048 1.5455868843918876 0 0 0
7086 3 7.793812934166351 44.09769092811273 1.5455645290517752 0 0 0
7078 3 10.911364594749717 44.09772033936835 1.5455800430856859 0 0 0
7076 3 14.028857825020202 44.097689115482765 1.5455962681494335 0 0 0
7075 3 17.14639148514271 44.09767658722663 1.5455624024024943 0 0 0
8727 3 20.263923223171375 44.09768439895804 1.5455520930848212 0 0 0
8728 3 23.381487251109558 44.09774973490694 1.5455406278745676 0 0 0
6900 3 2.341715598447131e-05 46.79760201478891 1.5455401172787209 1 0 0
7074 3 3.117501720208501 46.79758924620553 1.545556706033442 0 0 0
7073 3 6.235044239339409 46.79755647236688 1.545534715958936 0 0 0
7072 3 9.352607648311917 46.79756337804813 1.5455469345445507 0 0 0
7071 3 12.470109991836129 46.797550139163384 1.5454212959117304 0 0 0
6834 3 15.587602401231033 46.7975559642883 1.5455341569418464 0 0 0
6833 3 18.705169006815783 46.79755825410476 1.545502942659024 0 0 0
8734 3 21.822736207140185 46.79757324833443 1.545523440892675 0 0 0
8741 3 24.940242926686157 46.79758718083714 1.5454046008338576 0 0 0
6832 3 1.5587476078179854 49.49744100185078 1.545413329739476 0 0 0
6825 3 4.676240150366101 49.49743501374201 1.5455283151331505 0 0 0
6879 3 7.793799720222009 49.4974227212384 1.5454920803333878 0 0 0
6878 3 10.911352190344026 49.497389860749145 1.5455076126185983 0 0 0
6475 3 14.028859808641462 49.49738853667524 1.5455022284556803 0 0 0
6780 3 17.146403569184336 49.49742449098673 1.5454691279345762 0 0 0
8739 3 20.26394867057636 49.49743056683817 1.545471073977054 0 0 0
8740 3 23.381494977534103 49.49740936082066 1.545507562590519 0 0 0
2666 1 23.381412626932146 63.89677293136794 3.1044503261230605 0 0 0
6473 3 3.117488873409437 52.1972704028139 1.545514529502832 0 0 0
6281 3 6.235032757579364 52.19729575008408 1.54547009488061 0 0 0
6134 3 9.352577326970662 52.19728739824814 1.5454577966145606 0 0 0
6130 3 12.470109425057954 52.1972879526789 1.545454376727834 0 0 0
6135 3 15.587638840716199 52.19729113100698 1.5454471704398312 0 0 0
6138 3 18.70518106351539 52.19730352123813 1.5454458764779435 0 0 0
8622 3 21.82272445244864 52.197300198684225 1.545460148762694 0 0 0
8620 3 24.94025853420269 52.197308989615784 1.5454832594237733 0 0 0
6142 3 1.5587309678460592 54.89717066971716 1.5454939454224879 0 0 0
6159 3 4.67626223924844 54.897165790461315 1.5454673553417746 0 0 0
6145 3 7.793805883889893 54.89717202961712 1.5454468486172444 0 0 0
6128 3 10.911344072291756 54.89717238260364 1.5454393766500143 0 0 0
6120 3 14.028878836239139 54.89717551278447 1.545436430306666 0 0 0
6208 3 17.146415659568436 54.897181836806595 1.5454361955658527 0 0 0
8615 3 20.263954339512587 54.89718283657592 1.545444874881981 0 0 0
8614 3 23.381495139076808 54.89718295713862 1.545462629298509 0 0 0
6379 3 3.117494729470893 57.597047259220915 1.5454762203422503 0 0 0
6417 3 6.235037877447337 57.59704988898132 1.5454551876449427 0 0 0
6452 3 9.352577020511989 57.59705355106924 1.5454443361098131 0 0 0
6340 3 12.470112912310896 57.597056004545735 1.545441124617235 0 0 0
6257 3 15.58765124266714 57.597061459790304 1.5454431177857864 0 0 0
6280 3 18.70519194739945 57.59706954515145 1.5454522217088125 0 0 0
8313 3 21.82271730209043 57.597064105033596 1.5454624055228572 0 0 0
8315 3 24.940244616511485 57.59706196561686 1.5454755543723742 0 0 0
6412 3 1.5587388600869811 60.296924264079294 1.5454929678614202 0 0 0
6413 3 4.676276515085523 60.29692607717251 1.545476230958911 0 0 0
6386 3 7.793816557659341 60.29693512587916 1.5454657088721337 0 0 0
6448 3 10.911346002108196 60.29693448641565 1.5454595134498552 0 0 0