LAMMPS data file via write_data, version 2 Aug 2023, timestep = 563, units = metal

9568 atoms
3 atom types

0 311.75421683524326 xlo xhi
0 86.39584948503696 ylo yhi
0 50 zlo zhi
0 0 0 xy xz yz

Masses

1 95.94
2 32.065
3 32.065

Atoms # atomic

1 3 1.5587702564533814 0.8999568307800186 1.5454404146276337 0 0 0
2 3 4.676312424805809 0.899956830780051 1.5454404146275904 0 0 0
3 3 7.793854593158351 0.8999568307800683 1.5454404146276286 0 0 0
4 3 10.911396761510819 0.8999568307800455 1.5454404146276457 0 0 0
5 3 14.028938929863209 0.8999568307800488 1.5454404146276477 0 0 0
6 3 17.146481098215645 0.8999568307800734 1.5454404146276393 0 0 0
178 3 20.264023266568078 0.8999568307800716 1.5454404146276484 0 0 0
179 3 23.381565434920525 0.8999568307800596 1.5454404146276433 0 0 0
7 3 3.1175413406295958 3.599827127187437 1.545440414627619 0 0 0
8 3 6.235083508982073 3.5998271271874738 1.5454404146276357 0 0 0
9 3 9.352625677334599 3.599827127187454 1.545440414627665 0 0 0
10 3 12.470167845687019 3.5998271271874387 1.5454404146276572 0 0 0
11 3 15.587710014039425 3.5998271271874414 1.5454404146276604 0 0 0
180 3 18.705252182391856 3.5998271271874467 1.5454404146276683 0 0 0
181 3 21.8227943507443 3.5998271271874502 1.5454404146276666 0 0 0
182 3 24.940336519096743 3.5998271271874343 1.545440414627653 0 0 0
12 3 1.558770256453387 6.299697423594882 1.5454404146276242 0 0 0
13 3 4.676312424805813 6.29969742359488 1.5454404146276053 0 0 0
14 3 7.793854593158351 6.299697423594893 1.5454404146276477 0 0 0
15 3 10.911396761510822 6.2996974235948855 1.5454404146276601 0 0 0
16 3 14.028938929863228 6.299697423594882 1.5454404146276628 0 0 0
17 3 17.14648109821567 6.299697423594873 1.5454404146276617 0 0 0
183 3 20.264023266568078 6.299697423594877 1.5454404146276557 0 0 0
184 3 23.381565434920525 6.299697423594873 1.5454404146276624 0 0 0
18 3 3.1175413406295878 8.99956772000228 1.5454404146276237 0 0 0
19 3 6.235083508982069 8.999567720002313 1.5454404146276308 0 0 0
20 3 9.352625677334604 8.999567720002293 1.545440414627664 0 0 0
21 3 12.470167845687028 8.999567720002286 1.5454404146276588 0 0 0
22 3 15.587710014039434 8.999567720002284 1.5454404146276657 0 0 0
185 3 18.705252182391867 8.99956772000229 1.5454404146276612 0 0 0
186 3 21.8227943507443 8.99956772000229 1.5454404146276648 0 0 0
187 3 24.940336519096743 8.999567720002284 1.5454404146276464 0 0 0
23 3 1.5587702564533583 11.699438016409713 1.5454404146276524 0 0 0
24 3 4.676312424805801 11.699438016409678 1.5454404146276077 0 0 0
25 3 7.793854593158336 11.6994380164097 1.5454404146276537 0 0 0
26 3 10.911396761510822 11.699438016409685 1.54544041462766 0 0 0
27 3 14.028938929863228 11.699438016409692 1.545440414627663 0 0 0
28 3 17.146481098215656 11.699438016409685 1.5454404146276552 0 0 0
188 3 20.264023266568078 11.699438016409685 1.5454404146276537 0 0 0
189 3 23.381565434920525 11.699438016409685 1.5454404146276615 0 0 0
29 3 3.1175413406295585 14.3993083128171 1.54544041462766 0 0 0
30 3 6.235083508982071 14.399308312817114 1.5454404146276335 0 0 0
31 3 9.352625677334599 14.399308312817107 1.5454404146276612 0 0 0
32 3 12.470167845687019 14.399308312817107 1.5454404146276493 0 0 0
33 3 15.587710014039425 14.3993083128171 1.5454404146276586 0 0 0
190 3 18.705252182391856 14.399308312817107 1.5454404146276595 0 0 0
191 3 21.8227943507443 14.399308312817107 1.5454404146276457 0 0 0
192 3 24.940336519096743 14.399308312817107 1.5454404146276406 0 0 0
34 3 1.5587702564533732 17.099178609224484 1.545440414627683 0 0 0
35 3 4.676312424805812 17.099178609224513 1.5454404146276133 0 0 0
36 3 7.793854593158332 17.099178609224513 1.5454404146276561 0 0 0
37 3 10.911396761510828 17.09917860922452 1.5454404146276575 0 0 0
38 3 14.028938929863227 17.099178609224513 1.5454404146276628 0 0 0
39 3 17.146481098215656 17.09917860922452 1.5454404146276544 0 0 0
193 3 20.264023266568078 17.099178609224513 1.545440414627662 0 0 0
194 3 23.381565434920525 17.099178609224513 1.5454404146276628 0 0 0
40 3 3.117541340629598 19.79904890563192 1.545440414627628 0 0 0
41 3 6.235083508982069 19.799048905631942 1.5454404146276342 0 0 0
42 3 9.352625677334588 19.799048905631942 1.5454404146276715 0 0 0
43 3 12.470167845687019 19.799048905631935 1.5454404146276601 0 0 0
44 3 15.587710014039434 19.799048905631942 1.545440414627664 0 0 0
195 3 18.705252182391863 19.799048905631942 1.5454404146276624 0 0 0
196 3 21.8227943507443 19.799048905631935 1.5454404146276584 0 0 0
197 3 24.940336519096743 19.799048905631935 1.5454404146276537 0 0 0
133 3 1.5587702564533907 22.498919202039342 1.5454404146276264 0 0 0
134 3 4.676312424805816 22.498919202039357 1.5454404146276053 0 0 0
135 3 7.7938545931583265 22.498919202039357 1.5454404146276488 0 0 0
136 3 10.911396761510822 22.49891920203937 1.5454404146276575 0 0 0
137 3 14.028938929863209 22.498919202039342 1.5454404146276575 0 0 0
138 3 17.146481098215656 22.498919202039357 1.545440414627654 0 0 0
238 3 20.264023266568078 22.49891920203937 1.545440414627655 0 0 0
239 3 23.381565434920553 22.498919202039342 1.5454404146276584 0 0 0
139 3 3.1175413406295935 25.198789498446732 1.5454404146276246 0 0 0
140 3 6.235083508982063 25.19878949844676 1.5454404146276428 0 0 0
141 3 9.35262567733459 25.198789498446747 1.5454404146276635 0 0 0
142 3 12.470167845687017 25.198789498446747 1.5454404146276615 0 0 0
143 3 15.587710014039427 25.198789498446747 1.5454404146276668 0 0 0
240 3 18.705252182391863 25.198789498446747 1.5454404146276643 0 0 0
241 3 21.8227943507443 25.198789498446747 1.5454404146276584 0 0 0
242 3 24.940336519096743 25.198789498446747 1.5454404146276588 0 0 0
144 3 1.5587702564533876 27.898659794854165 1.5454404146276375 0 0 0
145 3 4.676312424805797 27.898659794854176 1.5454404146276173 0 0 0
146 3 7.793854593158322 27.898659794854176 1.5454404146276473 0 0 0
147 3 10.911396761510819 27.898659794854176 1.5454404146276575 0 0 0
148 3 14.028938929863218 27.898659794854193 1.5454404146276575 0 0 0
149 3 17.146481098215656 27.898659794854176 1.5454404146276528 0 0 0
243 3 20.264023266568078 27.898659794854176 1.5454404146276612 0 0 0
244 3 23.381565434920553 27.898659794854165 1.5454404146276632 0 0 0
45 2 1.5587702564534425 0.8999568307800364 4.663252918705701 0 0 0
46 2 4.676312424805826 0.8999568307800232 4.663252918705662 0 0 0
47 1 3.117541340629605 1.799913483088571 3.1043466666666473 0 0 0
48 2 7.7938545931583265 0.8999568307800695 4.663252918705682 0 0 0
49 1 6.235083508982073 1.7999134830885684 3.104346666666637 0 0 0
51 1 9.352625677334583 1.799913483088577 3.1043466666666744 0 0 0
50 2 10.911396761510822 0.8999568307800391 4.663252918705699 0 0 0
53 1 12.470167845687017 1.799913483088582 3.1043466666666726 0 0 0
52 2 14.028938929863209 0.8999568307800494 4.663252918705695 0 0 0
55 1 15.587710014039416 1.7999134830885795 3.104346666666672 0 0 0
54 2 17.146481098215645 0.8999568307800665 4.6632529187057 0 0 0
198 1 18.705252182391867 1.7999134830885763 3.1043466666666744 0 0 0
199 2 20.264023266568078 0.8999568307800613 4.6632529187057 0 0 0
200 1 21.8227943507443 1.7999134830885752 3.1043466666666717 0 0 0
201 2 23.381565434920525 0.8999568307800553 4.663252918705696 0 0 0
202 1 24.940336519096775 1.7999134830885872 3.1043466666666704 0 0 0
56 1 1.5587702564533878 4.4997837794960125 3.1043466666666126 0 0 0
57 1 4.676312424805816 4.499783779495994 3.1043466666666357 0 0 0
58 2 3.1175413406296353 3.5998271271874276 4.663252918705666 0 0 0
59 1 7.793854593158336 4.4997837794960045 3.104346666666651 0 0 0
60 2 6.23508350898206 3.5998271271874693 4.6632529187056475 0 0 0
62 2 9.352625677334565 3.5998271271874636 4.663252918705682 0 0 0
61 1 10.911396761510824 4.4997837794960045 3.1043466666666744 0 0 0
64 2 12.470167845687023 3.599827127187445 4.6632529187056875 0 0 0
63 1 14.028938929863214 4.499783779495997 3.104346666666676 0 0 0
66 2 15.587710014039414 3.599827127187437 4.663252918705689 0 0 0
65 1 17.146481098215656 4.499783779496003 3.104346666666676 0 0 0
203 2 18.70525218239185 3.5998271271874462 4.663252918705684 0 0 0
204 1 20.264023266568078 4.499783779495998 3.1043466666666744 0 0 0
205 2 21.8227943507443 3.599827127187445 4.663252918705684 0 0 0
206 1 23.38156543492052 4.499783779495996 3.1043466666666704 0 0 0
207 2 24.940336519096743 3.5998271271874343 4.663252918705691 0 0 0
67 2 1.5587702564534291 6.299697423594884 4.663252918705682 0 0 0
68 2 4.676312424805831 6.299697423594863 4.663252918705662 0 0 0
69 1 3.1175413406296055 7.19965407590341 3.104346666666654 0 0 0
70 2 7.793854593158311 6.299697423594897 4.663252918705665 0 0 0
71 1 6.23508350898206 7.19965407590341 3.1043466666666335 0 0 0
73 1 9.35262567733458 7.19965407590342 3.1043466666666744 0 0 0
72 2 10.911396761510822 6.29969742359488 4.663252918705693 0 0 0
75 1 12.470167845687019 7.199654075903424 3.1043466666666744 0 0 0
74 2 14.028938929863228 6.299697423594882 4.663252918705691 0 0 0
77 1 15.587710014039434 7.199654075903424 3.104346666666679 0 0 0
76 2 17.14648109821567 6.299697423594873 4.6632529187056955 0 0 0
208 1 18.705252182391856 7.199654075903417 3.1043466666666775 0 0 0
209 2 20.264023266568078 6.29969742359488 4.663252918705695 0 0 0
210 1 21.822794350744307 7.199654075903407 3.1043466666666744 0 0 0
211 2 23.381565434920553 6.299697423594882 4.663252918705686 0 0 0
212 1 24.940336519096743 7.19965407590342 3.1043466666666752 0 0 0
78 1 1.558770256453389 9.899524372310823 3.1043466666666277 0 0 0
79 1 4.676312424805809 9.89952437231081 3.1043466666666366 0 0 0
80 2 3.1175413406296357 8.999567720002274 4.663252918705669 0 0 0
81 1 7.793854593158332 9.899524372310813 3.1043466666666553 0 0 0
82 2 6.235083508982045 8.999567720002295 4.6632529187056475 0 0 0
84 2 9.352625677334572 8.999567720002297 4.663252918705678 0 0 0
83 1 10.911396761510808 9.89952437231082 3.1043466666666717 0 0 0
86 2 12.470167845687039 8.99956772000228 4.663252918705691 0 0 0
85 1 14.028938929863237 9.899524372310823 3.104346666666675 0 0 0
88 2 15.587710014039434 8.999567720002284 4.6632529187056955 0 0 0
87 1 17.146481098215656 9.899524372310823 3.104346666666678 0 0 0
213 2 18.705252182391863 8.999567720002293 4.663252918705692 0 0 0
214 1 20.264023266568078 9.899524372310813 3.1043466666666744 0 0 0
215 2 21.8227943507443 8.999567720002286 4.663252918705678 0 0 0
216 1 23.38156543492052 9.899524372310813 3.104346666666671 0 0 0
217 2 24.940336519096743 8.999567720002293 4.663252918705697 0 0 0
89 2 1.5587702564534325 11.699438016409685 4.663252918705712 0 0 0
90 2 4.676312424805834 11.69943801640967 4.663252918705671 0 0 0
91 1 3.1175413406296006 12.599394668718212 3.1043466666666646 0 0 0
92 2 7.793854593158312 11.6994380164097 4.663252918705666 0 0 0
93 1 6.23508350898205 12.599394668718219 3.1043466666666433 0 0 0
95 1 9.352625677334574 12.599394668718219 3.1043466666666744 0 0 0
94 2 10.911396761510822 11.699438016409685 4.663252918705689 0 0 0
97 1 12.470167845687037 12.599394668718233 3.104346666666673 0 0 0
96 2 14.028938929863218 11.6994380164097 4.663252918705683 0 0 0
99 1 15.587710014039436 12.599394668718233 3.104346666666678 0 0 0
98 2 17.14648109821567 11.699438016409685 4.663252918705694 0 0 0
218 1 18.705252182391856 12.599394668718226 3.1043466666666744 0 0 0
219 2 20.264023266568078 11.699438016409685 4.66325291870569 0 0 0
220 1 21.8227943507443 12.599394668718222 3.1043466666666664 0 0 0
221 2 23.381565434920553 11.699438016409692 4.663252918705682 0 0 0
222 1 24.940336519096743 12.599394668718222 3.104346666666667 0 0 0
100 1 1.5587702564533839 15.299264965125666 3.104346666666726 0 0 0
101 1 4.676312424805823 15.299264965125646 3.1043466666666424 0 0 0
102 2 3.1175413406296446 14.399308312817066 4.6632529187057035 0 0 0
103 1 7.793854593158327 15.299264965125632 3.1043466666666544 0 0 0
104 2 6.235083508982055 14.399308312817107 4.663252918705651 0 0 0
106 2 9.352625677334565 14.399308312817114 4.663252918705683 0 0 0
105 1 10.911396761510808 15.299264965125646 3.1043466666666744 0 0 0
108 2 12.470167845687023 14.399308312817107 4.663252918705703 0 0 0
107 1 14.028938929863218 15.299264965125653 3.1043466666666744 0 0 0
110 2 15.587710014039434 14.3993083128171 4.663252918705695 0 0 0
109 1 17.14648109821567 15.299264965125653 3.104346666666676 0 0 0
223 2 18.705252182391856 14.399308312817107 4.663252918705693 0 0 0
224 1 20.264023266568078 15.299264965125653 3.104346666666672 0 0 0
225 2 21.8227943507443 14.399308312817107 4.663252918705694 0 0 0
226 1 23.381565434920514 15.29926496512566 3.104346666666669 0 0 0
227 2 24.940336519096743 14.399308312817107 4.663252918705696 0 0 0
111 2 1.5587702564534387 17.099178609224573 4.663252918705727 0 0 0
112 2 4.67631242480584 17.0991786092245 4.6632529187056715 0 0 0
113 1 3.1175413406296077 17.999135261533045 3.10434666666666 0 0 0
114 2 7.793854593158307 17.099178609224527 4.663252918705662 0 0 0
115 1 6.23508350898206 17.999135261533052 3.104346666666645 0 0 0
117 1 9.352625677334563 17.99913526153306 3.104346666666671 0 0 0
116 2 10.911396761510819 17.099178609224527 4.663252918705693 0 0 0
119 1 12.470167845687019 17.99913526153309 3.104346666666676 0 0 0
118 2 14.028938929863225 17.099178609224502 4.6632529187056955 0 0 0
121 1 15.587710014039425 17.999135261533084 3.104346666666675 0 0 0
120 2 17.146481098215656 17.099178609224513 4.663252918705692 0 0 0
228 1 18.705252182391856 17.99913526153306 3.1043466666666757 0 0 0
229 2 20.264023266568078 17.09917860922452 4.663252918705684 0 0 0
230 1 21.8227943507443 17.999135261533052 3.1043466666666744 0 0 0
231 2 23.381565434920553 17.099178609224513 4.663252918705675 0 0 0
232 1 24.940336519096764 17.999135261533077 3.1043466666666713 0 0 0
122 1 1.5587702564533896 20.699005557940485 3.1043466666666277 0 0 0
123 1 4.6763124248058165 20.699005557940463 3.1043466666666384 0 0 0
124 2 3.117541340629628 19.799048905631928 4.663252918705679 0 0 0
125 1 7.793854593158322 20.699005557940485 3.1043466666666597 0 0 0
126 2 6.235083508982054 19.799048905631935 4.663252918705657 0 0 0
128 2 9.35262567733458 19.79904890563195 4.66325291870568 0 0 0
127 1 10.911396761510805 20.699005557940485 3.1043466666666815 0 0 0
130 2 12.470167845687019 19.799048905631928 4.663252918705691 0 0 0
129 1 14.028938929863214 20.699005557940485 3.104346666666675 0 0 0
132 2 15.587710014039434 19.799048905631942 4.663252918705684 0 0 0
131 1 17.146481098215645 20.699005557940495 3.1043466666666744 0 0 0
233 2 18.705252182391856 19.799048905631935 4.663252918705685 0 0 0
234 1 20.264023266568078 20.699005557940477 3.1043466666666775 0 0 0
235 2 21.8227943507443 19.799048905631935 4.6632529187056955 0 0 0
236 1 23.38156543492052 20.699005557940477 3.1043466666666775 0 0 0
237 2 24.940336519096743 19.799048905631935 4.663252918705696 0 0 0
150 2 1.5587702564534198 22.49891920203937 4.663252918705677 0 0 0
151 2 4.676312424805827 22.498919202039325 4.663252918705676 0 0 0
152 1 3.1175413406296104 23.39887585434787 3.1043466666666526 0 0 0
153 2 7.793854593158306 22.49891920203937 4.6632529187056715 0 0 0
154 1 6.23508350898205 23.398875854347843 3.104346666666644 0 0 0
156 1 9.352625677334574 23.39887585434789 3.1043466666666717 0 0 0
155 2 10.911396761510822 22.49891920203937 4.6632529187056955 0 0 0
158 1 12.470167845687028 23.39887585434787 3.104346666666675 0 0 0
157 2 14.028938929863209 22.498919202039342 4.66325291870569 0 0 0
160 1 15.58771001403943 23.39887585434789 3.104346666666671 0 0 0
159 2 17.14648109821567 22.49891920203937 4.663252918705692 0 0 0
245 1 18.705252182391856 23.39887585434789 3.104346666666676 0 0 0
246 2 20.264023266568078 22.498919202039357 4.663252918705693 0 0 0
247 1 21.8227943507443 23.39887585434788 3.104346666666669 0 0 0
248 2 23.381565434920553 22.498919202039357 4.66325291870569 0 0 0
249 1 24.940336519096764 23.39887585434789 3.10434666666667 0 0 0
161 1 1.5587702564533867 26.098746150755286 3.104346666666625 0 0 0
162 1 4.6763124248058165 26.098746150755257 3.104346666666643 0 0 0
163 2 3.1175413406296255 25.198789498446747 4.663252918705668 0 0 0
164 1 7.793854593158322 26.098746150755257 3.104346666666659 0 0 0
165 2 6.23508350898205 25.198789498446747 4.66325291870565 0 0 0
167 2 9.352625677334563 25.19878949844676 4.663252918705672 0 0 0
166 1 10.911396761510822 26.098746150755286 3.1043466666666744 0 0 0
169 2 12.470167845687019 25.198789498446747 4.663252918705692 0 0 0
168 1 14.028938929863209 26.09874615075527 3.1043466666666757 0 0 0
171 2 15.587710014039425 25.198789498446747 4.6632529187056875 0 0 0
170 1 17.146481098215645 26.098746150755286 3.1043466666666752 0 0 0
250 2 18.705252182391867 25.198789498446747 4.663252918705684 0 0 0
251 1 20.264023266568078 26.098746150755286 3.1043466666666735 0 0 0
252 2 21.8227943507443 25.198789498446732 4.663252918705683 0 0 0
253 1 23.381565434920518 26.098746150755257 3.1043466666666744 0 0 0
254 2 24.940336519096743 25.198789498446747 4.663252918705683 0 0 0
172 2 1.5587702564534331 27.898659794854176 4.663252918705683 0 0 0
173 2 4.676312424805819 27.898659794854137 4.663252918705667 0 0 0
174 2 7.793854593158311 27.898659794854193 4.6632529187056635 0 0 0
175 2 10.911396761510819 27.898659794854176 4.663252918705689 0 0 0
176 2 14.028938929863237 27.898659794854176 4.663252918705688 0 0 0
177 2 17.14648109821567 27.898659794854176 4.663252918705689 0 0 0
255 2 20.264023266568078 27.898659794854176 4.663252918705686 0 0 0
256 2 23.381565434920525 27.898659794854176 4.663252918705686 0 0 0
441 1 21.8227943507443 28.79861644716268 3.1043466666666775 0 0 0
442 1 24.940336519096743 28.79861644716268 3.1043466666666704 0 0 0
284 1 3.117541340629613 28.79861644716268 3.1043466666666495 0 0 0
285 1 6.235083508982058 28.79861644716266 3.1043466666666393 0 0 0
286 1 9.35262567733458 28.79861644716266 3.1043466666666713 0 0 0
287 1 12.470167845687019 28.798616447162676 3.104346666666673 0 0 0
288 1 15.587710014039434 28.798616447162676 3.1043466666666717 0 0 0
440 1 18.705252182391867 28.79861644716268 3.104346666666673 0 0 0
257 3 3.117541340629589 30.598530091261562 1.5454404146276164 0 0 0
258 3 6.2350835089820675 30.59853009126157 1.545440414627633 0 0 0
259 3 9.352625677334604 30.598530091261555 1.5454404146276715 0 0 0
260 3 12.470167845687017 30.598530091261555 1.545440414627658 0 0 0
261 3 15.587710014039434 30.598530091261555 1.5454404146276588 0 0 0
427 3 18.705252182391867 30.598530091261555 1.5454404146276617 0 0 0
428 3 21.822794350744296 30.59853009126154 1.5454404146276524 0 0 0
429 3 24.940336519096743 30.598530091261562 1.5454404146276497 0 0 0
262 3 1.558770256453372 33.298400387668956 1.545440414627629 0 0 0
263 3 4.676312424805807 33.29840038766894 1.5454404146275973 0 0 0
264 3 7.793854593158342 33.298400387668984 1.5454404146276308 0 0 0
265 3 10.911396761510822 33.298400387668956 1.5454404146276512 0 0 0
266 3 14.028938929863235 33.29840038766897 1.5454404146276484 0 0 0
267 3 17.14648109821567 33.298400387668956 1.5454404146276437 0 0 0
430 3 20.264023266568078 33.298400387669 1.545440414627663 0 0 0
431 3 23.381565434920514 33.29840038766894 1.5454404146276413 0 0 0
268 3 3.1175413406295553 35.99827068407639 1.5454404146276561 0 0 0
269 3 6.235083508982073 35.998270684076395 1.5454404146276497 0 0 0
270 3 9.352625677334604 35.998270684076395 1.5454404146276584 0 0 0
271 3 12.470167845687019 35.998270684076374 1.5454404146276577 0 0 0
272 3 15.58771001403945 35.998270684076374 1.5454404146276615 0 0 0
432 3 18.705252182391867 35.998270684076395 1.54544041462765 0 0 0
433 3 21.8227943507443 35.998270684076395 1.5454404146276484 0 0 0
434 3 24.940336519096743 35.998270684076395 1.5454404146276688 0 0 0
273 3 1.5587702564533792 38.698140980483764 1.5454404146276248 0 0 0
274 3 4.67631242480581 38.69814098048371 1.5454404146276028 0 0 0
275 3 7.793854593158342 38.698140980483736 1.545440414627648 0 0 0
276 3 10.911396761510844 38.698140980483764 1.5454404146276537 0 0 0
277 3 14.028938929863228 38.698140980483764 1.5454404146276537 0 0 0
278 3 17.14648109821567 38.698140980483764 1.5454404146276512 0 0 0
435 3 20.264023266568078 38.69814098048378 1.5454404146276552 0 0 0
436 3 23.381565434920542 38.69814098048375 1.5454404146276564 0 0 0
279 3 3.117541340629581 41.39801127689114 1.545440414627606 0 0 0
280 3 6.235083508982095 41.398011276891204 1.5454404146276441 0 0 0
281 3 9.352625677334583 41.39801127689117 1.5454404146276826 0 0 0
282 3 12.470167845687019 41.39801127689117 1.5454404146276741 0 0 0
283 3 15.587710014039434 41.39801127689114 1.5454404146276817 0 0 0
437 3 18.705252182391856 41.39801127689114 1.545440414627671 0 0 0
438 3 21.8227943507443 41.39801127689114 1.545440414627659 0 0 0
439 3 24.940336519096743 41.39801127689114 1.545440414627669 0 0 0
344 3 1.5587702564534136 44.0978815732985 1.5454404146276015 0 0 0
345 3 4.676312424805831 44.097881573298544 1.5454404146275937 0 0 0
346 3 7.793854593158347 44.097881573298594 1.5454404146276286 0 0 0
347 3 10.911396761510828 44.097881573298565 1.5454404146276457 0 0 0
348 3 14.028938929863246 44.097881573298565 1.5454404146276586 0 0 0
349 3 17.14648109821564 44.097881573298565 1.5454404146276377 0 0 0
468 3 20.264023266568078 44.097881573298565 1.5454404146276537 0 0 0
469 3 23.381565434920553 44.097881573298565 1.5454404146276701 0 0 0
350 3 3.1175413406295784 46.797751869706 1.5454404146276104 0 0 0
351 3 6.2350835089820675 46.79775186970595 1.5454404146276535 0 0 0
352 3 9.352625677334608 46.79775186970597 1.545440414627673 0 0 0
353 3 12.470167845687019 46.797751869706 1.5454404146276417 0 0 0
354 3 15.587710014039434 46.797751869706 1.5454404146276295 0 0 0
470 3 18.705252182391867 46.79775186970597 1.5454404146276497 0 0 0
471 3 21.822794350744324 46.79775186970597 1.5454404146276508 0 0 0
472 3 24.940336519096743 46.79775186970597 1.5454404146276395 0 0 0
355 3 1.5587702564534056 49.49762216611337 1.545440414627581 0 0 0
356 3 4.676312424805836 49.49762216611337 1.5454404146276315 0 0 0
357 3 7.793854593158337 49.49762216611343 1.5454404146276735 0 0 0
358 3 10.911396761510833 49.49762216611343 1.545440414627672 0 0 0
359 3 14.028938929863228 49.49762216611343 1.545440414627669 0 0 0
360 3 17.146481098215645 49.4976221661134 1.5454404146276666 0 0 0
473 3 20.264023266568078 49.49762216611337 1.5454404146276592 0 0 0
474 3 23.381565434920553 49.4976221661134 1.5454404146276726 0 0 0
361 3 3.1175413406295926 52.19749246252072 1.5454404146276048 0 0 0
362 3 6.235083508982083 52.19749246252078 1.5454404146276544 0 0 0
363 3 9.35262567733458 52.19749246252078 1.5454404146276726 0 0 0
364 3 12.47016784568703 52.19749246252075 1.5454404146276521 0 0 0
365 3 15.587710014039436 52.19749246252078 1.5454404146276544 0 0 0
475 3 18.705252182391888 52.19749246252078 1.5454404146276561 0 0 0
476 3 21.822794350744296 52.19749246252075 1.5454404146276821 0 0 0
477 3 24.940336519096743 52.19749246252078 1.5454404146276655 0 0 0
366 3 1.5587702564534056 54.89736275892812 1.5454404146275529 0 0 0
367 3 4.676312424805828 54.89736275892815 1.5454404146275658 0 0 0
368 3 7.7938545931583505 54.89736275892818 1.5454404146276333 0 0 0
369 3 10.911396761510828 54.89736275892818 1.5454404146276435 0 0 0
370 3 14.028938929863227 54.8973627589282 1.5454404146276728 0 0 0
371 3 17.146481098215656 54.89736275892818 1.5454404146276746 0 0 0
478 3 20.264023266568078 54.89736275892818 1.5454404146276488 0 0 0
479 3 23.38156543492054 54.89736275892818 1.5454404146276404 0 0 0
504 1 24.940336519096743 55.79731941123673 3.104346666666672 0 0 0
291 2 3.117541340629628 30.598530091261548 4.663252918705666 0 0 0
502 1 21.8227943507443 55.7973194112367 3.1043466666666775 0 0 0
293 2 6.23508350898205 30.59853009126157 4.663252918705644 0 0 0
500 1 18.705252182391867 55.79731941123671 3.1043466666666664 0 0 0
295 2 9.352625677334563 30.598530091261562 4.663252918705675 0 0 0
426 1 15.587710014039445 55.79731941123671 3.104346666666695 0 0 0
297 2 12.47016784568703 30.598530091261555 4.663252918705694 0 0 0
424 1 12.470167845687019 55.797319411236714 3.10434666666667 0 0 0
299 2 15.587710014039434 30.598530091261555 4.663252918705682 0 0 0
422 1 9.352625677334585 55.79731941123662 3.1043466666666744 0 0 0
443 2 18.705252182391853 30.598530091261555 4.663252918705701 0 0 0
420 1 6.235083508982058 55.79731941123673 3.10434666666663 0 0 0
445 2 21.822794350744296 30.598530091261555 4.663252918705713 0 0 0
418 1 3.1175413406296 55.7973194112367 3.104346666666604 0 0 0
447 2 24.940336519096743 30.598530091261555 4.663252918705677 0 0 0
289 1 1.5587702564533867 31.49848674357011 3.10434666666663 0 0 0
300 2 1.558770256453425 33.29840038766897 4.663252918705716 0 0 0
290 1 4.676312424805818 31.498486743570073 3.10434666666664 0 0 0
301 2 4.676312424805842 33.29840038766891 4.663252918705678 0 0 0
292 1 7.793854593158322 31.498486743570073 3.1043466666666575 0 0 0
303 2 7.793854593158307 33.298400387668984 4.663252918705676 0 0 0
294 1 10.911396761510805 31.498486743570094 3.104346666666689 0 0 0
305 2 10.911396761510813 33.298400387668984 4.6632529187057035 0 0 0
296 1 14.028938929863227 31.498486743570094 3.1043466666666713 0 0 0
307 2 14.028938929863235 33.29840038766897 4.663252918705685 0 0 0
298 1 17.146481098215656 31.498486743570066 3.1043466666666695 0 0 0
309 2 17.14648109821567 33.298400387668956 4.663252918705697 0 0 0
444 1 20.264023266568078 31.498486743570094 3.104346666666675 0 0 0
449 2 20.264023266568078 33.29840038766894 4.663252918705709 0 0 0
446 1 23.381565434920514 31.498486743570094 3.104346666666678 0 0 0
451 2 23.381565434920486 33.298400387668984 4.663252918705699 0 0 0
302 1 3.1175413406295966 34.19835703997751 3.104346666666661 0 0 0
313 2 3.1175413406296424 35.998270684076374 4.663252918705698 0 0 0
304 1 6.235083508982063 34.198357039977566 3.1043466666666357 0 0 0
315 2 6.235083508982055 35.998270684076395 4.663252918705644 0 0 0
306 1 9.35262567733458 34.19835703997754 3.1043466666666664 0 0 0
317 2 9.352625677334569 35.998270684076395 4.663252918705677 0 0 0
308 1 12.470167845687019 34.19835703997755 3.104346666666669 0 0 0
319 2 12.47016784568703 35.998270684076374 4.663252918705693 0 0 0
310 1 15.58771001403944 34.19835703997751 3.1043466666666673 0 0 0
321 2 15.587710014039446 35.998270684076374 4.6632529187056795 0 0 0
448 1 18.705252182391856 34.19835703997755 3.1043466666666792 0 0 0
453 2 18.705252182391867 35.998270684076395 4.663252918705689 0 0 0
450 1 21.822794350744296 34.19835703997754 3.104346666666673 0 0 0
455 2 21.8227943507443 35.998270684076395 4.663252918705688 0 0 0
452 1 24.940336519096743 34.198357039977566 3.1043466666666673 0 0 0
457 2 24.940336519096743 35.998270684076374 4.663252918705681 0 0 0
311 1 1.558770256453393 36.89822733638494 3.104346666666701 0 0 0
322 2 1.5587702564534451 38.69814098048384 4.663252918705732 0 0 0
312 1 4.676312424805815 36.89822733638487 3.1043466666666464 0 0 0
323 2 4.676312424805818 38.698140980483736 4.663252918705661 0 0 0
314 1 7.793854593158332 36.89822733638493 3.1043466666666553 0 0 0
325 2 7.793854593158317 38.69814098048375 4.6632529187056635 0 0 0
316 1 10.911396761510828 36.89822733638493 3.104346666666676 0 0 0
327 2 10.911396761510838 38.69814098048375 4.663252918705699 0 0 0
318 1 14.028938929863228 36.89822733638491 3.1043466666666752 0 0 0
329 2 14.028938929863239 38.69814098048378 4.663252918705684 0 0 0
320 1 17.14648109821564 36.898227336384885 3.1043466666666695 0 0 0
331 2 17.14648109821567 38.69814098048378 4.6632529187056955 0 0 0
454 1 20.264023266568078 36.89822733638494 3.104346666666669 0 0 0
459 2 20.264023266568078 38.698140980483764 4.663252918705691 0 0 0
456 1 23.381565434920525 36.89822733638491 3.104346666666678 0 0 0
461 2 23.381565434920553 38.69814098048375 4.6632529187056955 0 0 0
324 1 3.1175413406296206 39.59809763279232 3.1043466666666353 0 0 0
335 2 3.1175413406296077 41.39801127689117 4.663252918705633 0 0 0
326 1 6.235083508982048 39.59809763279228 3.104346666666643 0 0 0
337 2 6.235083508982055 41.398011276891204 4.663252918705627 0 0 0
328 1 9.352625677334585 39.59809763279228 3.1043466666666744 0 0 0
339 2 9.352625677334565 41.39801127689117 4.66325291870567 0 0 0
330 1 12.47016784568703 39.5980976327923 3.104346666666673 0 0 0
341 2 12.470167845687019 41.39801127689117 4.6632529187056795 0 0 0
332 1 15.58771001403945 39.598097632792296 3.1043466666666704 0 0 0
343 2 15.587710014039434 41.39801127689114 4.663252918705669 0 0 0
458 1 18.705252182391856 39.598097632792296 3.1043466666666775 0 0 0
463 2 18.705252182391867 41.39801127689117 4.663252918705687 0 0 0
460 1 21.8227943507443 39.59809763279223 3.1043466666666695 0 0 0
465 2 21.822794350744296 41.39801127689114 4.66325291870568 0 0 0
462 1 24.940336519096743 39.59809763279228 3.104346666666663 0 0 0
467 2 24.940336519096743 41.39801127689108 4.663252918705686 0 0 0
333 1 1.5587702564534416 42.2979679291997 3.1043466666666375 0 0 0
372 2 1.5587702564534633 44.097881573298565 4.66325291870567 0 0 0
334 1 4.676312424805827 42.29796792919973 3.1043466666666077 0 0 0
373 2 4.676312424805836 44.0978815732985 4.663252918705664 0 0 0
336 1 7.793854593158336 42.29796792919973 3.1043466666666575 0 0 0
375 2 7.793854593158326 44.09788157329862 4.663252918705709 0 0 0
338 1 10.911396761510833 42.2979679291997 3.1043466666666752 0 0 0
377 2 10.911396761510828 44.097881573298565 4.663252918705709 0 0 0
340 1 14.028938929863239 42.2979679291997 3.1043466666666775 0 0 0
379 2 14.028938929863248 44.097881573298565 4.663252918705693 0 0 0
342 1 17.146481098215656 42.297967929199636 3.1043466666666766 0 0 0
381 2 17.14648109821564 44.097881573298565 4.663252918705706 0 0 0
464 1 20.264023266568078 42.29796792919968 3.1043466666666717 0 0 0
481 2 20.264023266568078 44.097881573298565 4.663252918705682 0 0 0
466 1 23.381565434920514 42.29796792919968 3.1043466666666846 0 0 0
483 2 23.381565434920525 44.097881573298565 4.663252918705682 0 0 0
374 1 3.1175413406296166 44.997838225607104 3.1043466666666397 0 0 0
385 2 3.117541340629586 46.79775186970597 4.66325291870568 0 0 0