LAMMPS data file via write_data, version 2 Aug 2023, timestep = 715, units = metal

18896 atoms
3 atom types

0 623.507618427187 xlo xhi
0 86.3957843090963 ylo yhi
0 50 zlo zhi
0 0 0 xy xz yz

Masses

1 95.94
2 32.065
3 32.065

Atoms # atomic

1 3 1.5587682183471325 0.8999560659374765 1.5454394972553929 0 0 0
2 3 4.676306310482092 0.8999560659377253 1.5454394972556071 0 0 0
3 3 7.7938444026182 0.899956065937824 1.545439497255663 0 0 0
4 3 10.91138249475412 0.8999560659377395 1.5454394972556798 0 0 0
5 3 14.028920586889972 0.8999560659376642 1.5454394972556733 0 0 0
6 3 17.1464586790259 0.8999560659376675 1.5454394972556706 0 0 0
7 3 20.263996771161846 0.8999560659376971 1.5454394972556362 0 0 0
8 3 23.38153486329781 0.8999560659377077 1.545439497255653 0 0 0
385 3 26.49907295543381 0.8999560659377375 1.5454394972556813 0 0 0
386 3 29.616611047569798 0.899956065937721 1.5454394972556473 0 0 0
387 3 32.734149139705785 0.8999560659377549 1.545439497255623 0 0 0
9 3 3.11753726441409 3.5998243255968836 1.5454394972554995 0 0 0
10 3 6.235075356549651 3.599824325597032 1.5454394972556735 0 0 0
11 3 9.352613448686101 3.5998243255968205 1.5454394972557264 0 0 0
12 3 12.470151540822211 3.599824325596815 1.5454394972556549 0 0 0
13 3 15.587689632957998 3.599824325596817 1.545439497255649 0 0 0
14 3 18.705227725093877 3.5998243255968942 1.545439497255701 0 0 0
15 3 21.82276581722984 3.599824325596904 1.5454394972556766 0 0 0
16 3 24.940303909365834 3.599824325596904 1.5454394972556686 0 0 0
388 3 28.05784200150183 3.599824325596901 1.5454394972556924 0 0 0
389 3 31.175380093637795 3.599824325596887 1.5454394972556829 0 0 0
390 3 34.292918185773644 3.5998243255968254 1.545439497255663 0 0 0
17 3 1.5587682183461162 6.299692585256286 1.5454394972556649 0 0 0
18 3 4.676306310482131 6.299692585256198 1.5454394972557586 0 0 0
19 3 7.793844402618086 6.299692585256002 1.5454394972557028 0 0 0
20 3 10.911382494754136 6.299692585255995 1.5454394972557333 0 0 0
21 3 14.028920586890026 6.299692585256019 1.5454394972557046 0 0 0
22 3 17.14645867902592 6.2996925852560475 1.5454394972557177 0 0 0
23 3 20.263996771161874 6.2996925852560635 1.5454394972557466 0 0 0
24 3 23.381534863297848 6.299692585256061 1.545439497255698 0 0 0
391 3 26.49907295543381 6.299692585256078 1.5454394972557361 0 0 0
392 3 29.61661104756974 6.2996925852560635 1.5454394972557177 0 0 0
393 3 32.734149139705785 6.29969258525603 1.5454394972556935 0 0 0
25 3 3.1175372644144654 8.999560844915452 1.5454394972558283 0 0 0
26 3 6.235075356549861 8.999560844915283 1.545439497255634 0 0 0
27 3 9.352613448686068 8.999560844915328 1.5454394972557692 0 0 0
28 3 12.470151540822158 8.999560844915331 1.5454394972557008 0 0 0
29 3 15.587689632958009 8.999560844915294 1.545439497255721 0 0 0
30 3 18.705227725093916 8.999560844915345 1.5454394972557086 0 0 0
31 3 21.822765817229786 8.999560844915345 1.5454394972557142 0 0 0
32 3 24.940303909365802 8.99956084491534 1.5454394972557055 0 0 0
394 3 28.057842001501797 8.999560844915331 1.545439497255728 0 0 0
395 3 31.175380093637763 8.999560844915353 1.5454394972557548 0 0 0
396 3 34.29291818577369 8.999560844915322 1.5454394972556738 0 0 0
33 3 1.558768218345816 11.699429104574742 1.545439497256002 0 0 0
34 3 4.6763063104819755 11.699429104574685 1.5454394972557202 0 0 0
35 3 7.7938444026180305 11.699429104574612 1.5454394972556877 0 0 0
36 3 10.91138249475415 11.699429104574612 1.5454394972557093 0 0 0
37 3 14.02892058689008 11.699429104574588 1.545439497255709 0 0 0
38 3 17.14645867902601 11.699429104574598 1.5454394972557215 0 0 0
39 3 20.263996771161878 11.699429104574588 1.545439497255716 0 0 0
40 3 23.38153486329781 11.699429104574612 1.5454394972557177 0 0 0
397 3 26.49907295543383 11.699429104574637 1.5454394972557015 0 0 0
398 3 29.616611047569787 11.699429104574609 1.545439497255704 0 0 0
399 3 32.73414913970571 11.699429104574612 1.5454394972557046 0 0 0
41 3 3.1175372644141897 14.399297364233737 1.5454394972554304 0 0 0
42 3 6.235075356549548 14.399297364233915 1.5454394972557453 0 0 0
43 3 9.352613448686093 14.399297364233847 1.5454394972557548 0 0 0
44 3 12.470151540822197 14.399297364233867 1.5454394972557162 0 0 0
45 3 15.587689632958078 14.399297364233867 1.5454394972557104 0 0 0
46 3 18.705227725093902 14.399297364233874 1.5454394972557137 0 0 0
47 3 21.822765817229836 14.399297364233874 1.5454394972557026 0 0 0
48 3 24.940303909365863 14.399297364233854 1.5454394972557126 0 0 0
400 3 28.057842001501797 14.399297364233895 1.545439497255701 0 0 0
401 3 31.175380093637735 14.399297364233908 1.5454394972557506 0 0 0
402 3 34.29291818577366 14.399297364233846 1.5454394972556675 0 0 0
49 3 1.5587682183463933 17.099165623893292 1.54543949725571 0 0 0
50 3 4.6763063104820946 17.09916562389292 1.545439497255727 0 0 0
51 3 7.7938444026180616 17.09916562389311 1.5454394972557128 0 0 0
52 3 10.911382494754145 17.099165623893153 1.5454394972557024 0 0 0
53 3 14.028920586890056 17.09916562389311 1.5454394972557066 0 0 0
54 3 17.146458679025994 17.099165623893104 1.545439497255723 0 0 0
55 3 20.263996771161885 17.099165623893104 1.5454394972556784 0 0 0
56 3 23.38153486329781 17.099165623893096 1.5454394972556988 0 0 0
403 3 26.499072955433792 17.099165623893075 1.5454394972557304 0 0 0
404 3 29.61661104756976 17.099165623893068 1.5454394972557046 0 0 0
405 3 32.734149139705686 17.099165623893096 1.5454394972556813 0 0 0
57 3 3.11753726441404 19.7990338835521 1.5454394972556265 0 0 0
58 3 6.235075356549705 19.799033883552365 1.545439497255764 0 0 0
59 3 9.352613448686133 19.799033883552482 1.5454394972557297 0 0 0
60 3 12.47015154082216 19.799033883552422 1.5454394972557046 0 0 0
61 3 15.587689632958067 19.799033883552298 1.545439497255707 0 0 0
62 3 18.705227725093867 19.79903388355234 1.545439497255695 0 0 0
63 3 21.822765817229744 19.79903388355237 1.5454394972557335 0 0 0
64 3 24.940303909365834 19.799033883552365 1.5454394972557173 0 0 0
406 3 28.05784200150178 19.799033883552365 1.5454394972557148 0 0 0
407 3 31.175380093637706 19.799033883552394 1.5454394972557344 0 0 0
408 3 34.29291818577367 19.79903388355234 1.5454394972556613 0 0 0
65 3 1.558768218346177 22.498902143211783 1.545439497255909 0 0 0
66 3 4.6763063104821 22.498902143211577 1.5454394972558108 0 0 0
67 3 7.793844402618121 22.498902143211634 1.5454394972556502 0 0 0
68 3 10.911382494754104 22.498902143211687 1.5454394972556835 0 0 0
69 3 14.028920586890031 22.49890214321164 1.5454394972557173 0 0 0
70 3 17.14645867902602 22.498902143211634 1.545439497255737 0 0 0
71 3 20.263996771161892 22.498902143211648 1.5454394972557055 0 0 0
72 3 23.38153486329781 22.49890214321162 1.5454394972557164 0 0 0
409 3 26.49907295543377 22.498902143211655 1.5454394972557026 0 0 0
410 3 29.616611047569798 22.498902143211634 1.5454394972556937 0 0 0
411 3 32.73414913970571 22.49890214321164 1.5454394972557042 0 0 0
73 3 3.117537264414378 25.19877040287082 1.545439497255456 0 0 0
74 3 6.235075356549626 25.198770402870984 1.545439497255824 0 0 0
75 3 9.352613448686217 25.198770402870903 1.545439497255713 0 0 0
76 3 12.470151540822132 25.198770402870963 1.5454394972556753 0 0 0
77 3 15.587689632958009 25.198770402870903 1.545439497255691 0 0 0
78 3 18.70522772509391 25.19877040287093 1.545439497255678 0 0 0
79 3 21.8227658172298 25.198770402870952 1.5454394972557268 0 0 0
80 3 24.940303909365785 25.198770402870917 1.5454394972557275 0 0 0
412 3 28.05784200150185 25.19877040287093 1.5454394972556973 0 0 0
413 3 31.175380093637724 25.19877040287093 1.5454394972556862 0 0 0
414 3 34.292918185773715 25.19877040287093 1.5454394972557415 0 0 0
81 3 1.5587682183462876 27.898638662530196 1.5454394972557963 0 0 0
82 3 4.6763063104820946 27.898638662530097 1.5454394972558736 0 0 0
83 3 7.7938444026180225 27.89863866253012 1.5454394972556453 0 0 0
84 3 10.911382494754104 27.89863866253018 1.5454394972557062 0 0 0
85 3 14.028920586890026 27.898638662530107 1.5454394972557104 0 0 0
86 3 17.14645867902596 27.898638662530164 1.5454394972557257 0 0 0
87 3 20.263996771161846 27.89863866253018 1.5454394972557046 0 0 0
88 3 23.381534863297823 27.898638662530164 1.5454394972557108 0 0 0
415 3 26.49907295543383 27.898638662530097 1.5454394972557166 0 0 0
416 3 29.616611047569787 27.898638662530097 1.545439497255691 0 0 0
417 3 32.73414913970571 27.898638662530164 1.5454394972557048 0 0 0
257 3 3.1175372644143873 30.598506922189365 1.5454394972554844 0 0 0
258 3 6.2350753565496415 30.598506922189433 1.5454394972557728 0 0 0
259 3 9.352613448686217 30.59850692218935 1.545439497255811 0 0 0
260 3 12.4701515408222 30.598506922189433 1.545439497255714 0 0 0
261 3 15.587689632957957 30.598506922189383 1.5454394972557006 0 0 0
262 3 18.705227725093888 30.598506922189447 1.5454394972557135 0 0 0
263 3 21.822765817229822 30.59850692218942 1.545439497255752 0 0 0
264 3 24.94030390936584 30.598506922189337 1.5454394972557408 0 0 0
481 3 28.057842001501758 30.598506922189408 1.5454394972556995 0 0 0
482 3 31.175380093637724 30.598506922189408 1.5454394972557584 0 0 0
483 3 34.292918185773715 30.59850692218946 1.5454394972557832 0 0 0
265 3 1.55876821834603 33.29837518184914 1.5454394972556478 0 0 0
266 3 4.676306310481878 33.29837518184868 1.5454394972557797 0 0 0
267 3 7.793844402618071 33.29837518184871 1.5454394972557426 0 0 0
268 3 10.911382494754175 33.29837518184865 1.5454394972556635 0 0 0
269 3 14.028920586890006 33.29837518184866 1.545439497255702 0 0 0
270 3 17.146458679026 33.29837518184868 1.5454394972557126 0 0 0
271 3 20.263996771161885 33.298375181848726 1.5454394972557124 0 0 0
272 3 23.381534863297823 33.29837518184877 1.545439497255738 0 0 0
484 3 26.499072955433824 33.298375181848755 1.545439497255732 0 0 0
485 3 29.616611047569815 33.29837518184868 1.5454394972557055 0 0 0
486 3 32.73414913970579 33.298375181848755 1.5454394972557117 0 0 0
273 3 3.1175372644141763 35.998243441508045 1.5454394972555312 0 0 0
274 3 6.235075356549546 35.99824344150806 1.5454394972556993 0 0 0
275 3 9.352613448686068 35.99824344150784 1.5454394972557484 0 0 0
276 3 12.470151540822242 35.99824344150791 1.545439497255698 0 0 0
277 3 15.587689632958075 35.998243441507995 1.5454394972556968 0 0 0
278 3 18.705227725093877 35.99824344150803 1.5454394972557173 0 0 0
279 3 21.822765817229804 35.99824344150803 1.5454394972556804 0 0 0
280 3 24.940303909365863 35.99824344150794 1.5454394972556826 0 0 0
487 3 28.057842001501793 35.998243441507995 1.5454394972557242 0 0 0
488 3 31.175380093637774 35.998243441507896 1.5454394972556997 0 0 0
489 3 34.292918185773715 35.998243441507995 1.5454394972556778 0 0 0
281 3 1.5587682183464526 38.69811170116711 1.5454394972554097 0 0 0
282 3 4.676306310482117 38.69811170116714 1.5454394972557617 0 0 0
283 3 7.793844402618136 38.6981117011673 1.5454394972557117 0 0 0
284 3 10.911382494754125 38.698111701167136 1.5454394972557217 0 0 0
285 3 14.028920586890056 38.69811170116712 1.5454394972557284 0 0 0
286 3 17.14645867902599 38.69811170116717 1.5454394972557262 0 0 0
287 3 20.263996771161885 38.69811170116724 1.5454394972556924 0 0 0
288 3 23.381534863297823 38.69811170116717 1.545439497255738 0 0 0
490 3 26.49907295543375 38.69811170116719 1.545439497255701 0 0 0
491 3 29.616611047569837 38.69811170116717 1.5454394972556917 0 0 0
492 3 32.734149139705664 38.69811170116716 1.5454394972556955 0 0 0
289 3 3.1175372644144805 41.397979960826376 1.5454394972558652 0 0 0
290 3 6.235075356549632 41.397979960826625 1.545439497255513 0 0 0
291 3 9.352613448685766 41.39797996082667 1.545439497255799 0 0 0
292 3 12.47015154082225 41.397979960826476 1.5454394972557493 0 0 0
293 3 15.587689632958158 41.39797996082646 1.545439497255663 0 0 0
294 3 18.70522772509389 41.39797996082643 1.545439497255698 0 0 0
295 3 21.822765817229804 41.39797996082643 1.545439497255716 0 0 0
296 3 24.940303909365824 41.3979799608265 1.5454394972557173 0 0 0
493 3 28.057842001501754 41.39797996082646 1.5454394972557655 0 0 0
494 3 31.175380093637667 41.39797996082646 1.5454394972557046 0 0 0
495 3 34.29291818577369 41.3979799608265 1.5454394972557164 0 0 0
89 2 1.5587682183471652 0.8999560659374499 4.663253836078191 0 0 0
90 2 4.6763063104821 0.8999560659377357 4.663253836077625 0 0 0
91 1 3.1175372644142656 1.799912297109833 3.1043466666666935 0 0 0
92 1 6.235075356550097 1.7999122971096804 3.104346666666663 0 0 0
93 2 7.793844402618191 0.8999560659377652 4.663253836077704 0 0 0
94 1 9.352613448686215 1.7999122971096073 3.104346666666703 0 0 0
95 2 10.911382494754129 0.8999560659377617 4.663253836077704 0 0 0
96 1 12.470151540822082 1.7999122971096273 3.104346666666678 0 0 0
97 2 14.028920586890017 0.8999560659376569 4.6632538360776685 0 0 0
98 1 15.587689632957948 1.7999122971095944 3.1043466666666655 0 0 0
99 2 17.146458679025944 0.8999560659376722 4.663253836077699 0 0 0
100 2 20.263996771161896 0.899956065937736 4.66325383607774 0 0 0
101 1 18.705227725093817 1.7999122971096084 3.104346666666681 0 0 0
102 1 21.822765817229804 1.7999122971096664 3.1043466666666744 0 0 0
103 2 23.38153486329781 0.8999560659377279 4.663253836077702 0 0 0
104 1 24.940303909365852 1.799912297109684 3.104346666666673 0 0 0
418 2 26.499072955433785 0.8999560659377237 4.663253836077687 0 0 0
419 1 28.05784200150183 1.799912297109655 3.104346666666683 0 0 0
420 2 29.61661104756978 0.8999560659377576 4.663253836077697 0 0 0
421 1 31.175380093637873 1.7999122971096364 3.1043466666666615 0 0 0
422 2 32.734149139705785 0.8999560659377275 4.663253836077722 0 0 0
423 1 34.292918185773644 1.7999122971096402 3.104346666666687 0 0 0
105 1 1.558768218346573 4.4997805567690135 3.104346666666592 0 0 0
106 1 4.6763063104817295 4.499780556768875 3.104346666666622 0 0 0
107 2 3.117537264413968 3.5998243255970235 4.663253836077736 0 0 0
108 1 7.793844402617918 4.499780556768727 3.1043466666666886 0 0 0
109 2 6.2350753565496655 3.599824325597018 4.663253836077643 0 0 0
110 2 9.352613448686117 3.599824325596827 4.663253836077667 0 0 0
111 1 10.911382494754184 4.499780556768698 3.1043466666666886 0 0 0
112 2 12.470151540822231 3.599824325596804 4.663253836077691 0 0 0
113 1 14.028920586890106 4.499780556768752 3.1043466666666686 0 0 0
114 2 15.587689632957996 3.599824325596808 4.663253836077685 0 0 0
115 1 17.14645867902595 4.499780556768786 3.104346666666684 0 0 0
116 1 20.263996771161846 4.499780556768792 3.1043466666666952 0 0 0
117 2 18.705227725093867 3.5998243255968685 4.663253836077675 0 0 0
118 1 23.38153486329781 4.499780556768822 3.1043466666666757 0 0 0
119 2 21.822765817229836 3.599824325596868 4.663253836077688 0 0 0
120 2 24.940303909365753 3.59982432559693 4.6632538360777005 0 0 0
424 1 26.49907295543381 4.49978055676882 3.1043466666666877 0 0 0
425 2 28.05784200150183 3.5998243255969284 4.6632538360776685 0 0 0
426 1 29.616611047569815 4.499780556768827 3.104346666666679 0 0 0
427 2 31.175380093637767 3.599824325596852 4.663253836077654 0 0 0
428 1 32.73414913970563 4.4997805567687905 3.1043466666666886 0 0 0
429 2 34.29291818577366 3.5998243255968307 4.6632538360776845 0 0 0
121 2 1.5587682183461453 6.29969258525604 4.663253836077609 0 0 0
122 2 4.676306310482147 6.299692585256139 4.663253836077453 0 0 0
123 1 3.117537264414247 7.199648816428057 3.104346666666662 0 0 0
124 1 6.235075356550153 7.199648816428081 3.1043466666666526 0 0 0
125 2 7.793844402618037 6.299692585256026 4.663253836077672 0 0 0
126 1 9.35261344868607 7.199648816427966 3.1043466666666917 0 0 0
127 2 10.911382494754164 6.299692585255982 4.66325383607765 0 0 0
128 1 12.470151540822119 7.199648816428028 3.104346666666679 0 0 0
129 2 14.028920586890047 6.299692585256006 4.6632538360776365 0 0 0
130 1 15.587689632957956 7.199648816428044 3.104346666666668 0 0 0
131 2 17.146458679025955 6.299692585256054 4.663253836077632 0 0 0
132 2 20.263996771161878 6.299692585256081 4.663253836077623 0 0 0
133 1 18.705227725093852 7.1996488164280885 3.1043466666666824 0 0 0
134 1 21.822765817229797 7.19964881642811 3.1043466666666717 0 0 0
135 2 23.38153486329781 6.299692585256047 4.663253836077643 0 0 0
136 1 24.940303909365802 7.19964881642805 3.104346666666673 0 0 0
430 2 26.49907295543381 6.2996925852560945 4.663253836077639 0 0 0
431 1 28.05784200150179 7.199648816428076 3.10434666666668 0 0 0
432 2 29.61661104756976 6.29969258525605 4.6632538360776215 0 0 0
433 1 31.175380093637745 7.199648816428045 3.1043466666666664 0 0 0
434 2 32.734149139705735 6.299692585256054 4.663253836077647 0 0 0
435 1 34.29291818577375 7.199648816428093 3.104346666666676 0 0 0
137 1 1.5587682183463625 9.899517076087285 3.1043466666668347 0 0 0
138 1 4.6763063104822296 9.89951707608758 3.1043466666666606 0 0 0
139 2 3.1175372644148003 8.99956084491535 4.663253836077725 0 0 0
140 1 7.793844402617887 9.899517076087276 3.1043466666666495 0 0 0
141 2 6.235075356549885 8.99956084491535 4.6632538360776365 0 0 0
142 2 9.352613448686025 8.999560844915313 4.66325383607759 0 0 0
143 1 10.911382494754145 9.89951707608735 3.1043466666666872 0 0 0
144 2 12.470151540822139 8.999560844915315 4.6632538360776445 0 0 0
145 1 14.028920586890111 9.899517076087342 3.1043466666666717 0 0 0
146 2 15.587689632958037 8.9995608449153 4.663253836077625 0 0 0
147 1 17.146458679025972 9.899517076087342 3.1043466666666717 0 0 0
148 1 20.263996771161857 9.899517076087369 3.1043466666666886 0 0 0
149 2 18.7052277250939 8.999560844915345 4.663253836077666 0 0 0
150 1 23.38153486329787 9.89951707608734 3.104346666666676 0 0 0
151 2 21.822765817229804 8.999560844915342 4.663253836077631 0 0 0
152 2 24.940303909365802 8.999560844915328 4.663253836077626 0 0 0
436 1 26.49907295543383 9.899517076087378 3.10434666666666 0 0 0
437 2 28.057842001501797 8.99956084491534 4.6632538360776286 0 0 0
438 1 29.61661104756974 9.899517076087426 3.104346666666687 0 0 0
439 2 31.175380093637767 8.999560844915344 4.663253836077599 0 0 0
440 1 32.73414913970565 9.899517076087378 3.1043466666666855 0 0 0
441 2 34.29291818577366 8.999560844915335 4.6632538360776605 0 0 0
153 2 1.5587682183458411 11.699429104575088 4.663253836077731 0 0 0
154 2 4.676306310482003 11.69942910457469 4.663253836077614 0 0 0
155 1 3.1175372644141417 12.599385335746756 3.1043466666666975 0 0 0
156 1 6.235075356550029 12.599385335746643 3.10434666666665 0 0 0
157 2 7.793844402617966 11.6994291045746 4.663253836077632 0 0 0
158 1 9.352613448686121 12.599385335746561 3.104346666666687 0 0 0
159 2 10.911382494754159 11.699429104574612 4.663253836077658 0 0 0
160 1 12.47015154082213 12.599385335746609 3.104346666666678 0 0 0
161 2 14.02892058689007 11.699429104574579 4.663253836077638 0 0 0
162 1 15.58768963295799 12.599385335746634 3.1043466666666664 0 0 0
163 2 17.146458679025972 11.699429104574582 4.663253836077636 0 0 0
164 2 20.26399677116187 11.699429104574582 4.663253836077629 0 0 0
165 1 18.70522772509391 12.599385335746646 3.1043466666666824 0 0 0
166 1 21.822765817229822 12.599385335746605 3.1043466666666744 0 0 0
167 2 23.381534863297805 11.699429104574637 4.663253836077652 0 0 0
168 1 24.94030390936579 12.599385335746641 3.1043466666666855 0 0 0
442 2 26.49907295543381 11.699429104574595 4.663253836077622 0 0 0
443 1 28.057842001501793 12.599385335746634 3.1043466666666744 0 0 0
444 2 29.616611047569776 11.699429104574627 4.663253836077656 0 0 0
445 1 31.175380093637767 12.599385335746593 3.1043466666666757 0 0 0
446 2 32.734149139705686 11.699429104574635 4.663253836077668 0 0 0
447 1 34.292918185773736 12.599385335746664 3.1043466666666832 0 0 0
169 1 1.5587682183467222 15.29925359540636 3.1043466666666886 0 0 0
170 1 4.676306310481677 15.299253595405775 3.10434666666664 0 0 0
171 2 3.1175372644142043 14.399297364233812 4.663253836077893 0 0 0
172 1 7.793844402617814 15.299253595405812 3.1043466666666646 0 0 0
173 2 6.235075356549493 14.399297364233874 4.663253836077543 0 0 0
174 2 9.352613448686087 14.399297364233874 4.66325383607761 0 0 0
175 1 10.911382494754173 15.299253595405888 3.10434666666667 0 0 0
176 2 12.470151540822188 14.399297364233888 4.663253836077638 0 0 0
177 1 14.028920586890152 15.299253595405878 3.1043466666666886 0 0 0
178 2 15.587689632958089 14.39929736423384 4.663253836077658 0 0 0
179 1 17.14645867902601 15.299253595405874 3.104346666666681 0 0 0
180 1 20.263996771161846 15.299253595405823 3.104346666666673 0 0 0
181 2 18.705227725093902 14.39929736423386 4.6632538360776445 0 0 0
182 1 23.381534863297848 15.299253595405833 3.1043466666666646 0 0 0
183 2 21.822765817229783 14.39929736423387 4.663253836077635 0 0 0
184 2 24.940303909365802 14.39929736423386 4.663253836077637 0 0 0
448 1 26.499072955433792 15.299253595405856 3.1043466666666717 0 0 0
449 2 28.057842001501758 14.399297364233902 4.663253836077652 0 0 0
450 1 29.616611047569798 15.299253595405855 3.1043466666666837 0 0 0
451 2 31.175380093637724 14.399297364233847 4.663253836077627 0 0 0
452 1 32.73414913970565 15.299253595405848 3.104346666666683 0 0 0
453 2 34.29291818577367 14.399297364233854 4.663253836077705 0 0 0
185 2 1.5587682183465905 17.099165623893114 4.6632538360780025 0 0 0
186 2 4.676306310481992 17.099165623892908 4.663253836077604 0 0 0
187 1 3.1175372644142394 17.999121855065006 3.104346666666695 0 0 0
188 1 6.235075356549963 17.999121855065017 3.1043466666666895 0 0 0
189 2 7.793844402618017 17.09916562389309 4.663253836077632 0 0 0
190 1 9.352613448686064 17.999121855065162 3.1043466666666757 0 0 0
191 2 10.91138249475412 17.09916562389319 4.663253836077625 0 0 0
192 1 12.470151540822073 17.999121855065184 3.104346666666671 0 0 0
193 2 14.028920586890056 17.09916562389311 4.663253836077647 0 0 0
194 1 15.587689632957996 17.999121855065074 3.104346666666675 0 0 0
195 2 17.14645867902598 17.099165623893104 4.663253836077629 0 0 0
196 2 20.263996771161857 17.099165623893104 4.663253836077646 0 0 0
197 1 18.705227725093888 17.9991218550651 3.104346666666671 0 0 0
198 1 21.822765817229783 17.99912185506506 3.104346666666656 0 0 0
199 2 23.381534863297805 17.099165623893096 4.663253836077635 0 0 0
200 1 24.940303909365824 17.99912185506511 3.1043466666666824 0 0 0
454 2 26.499072955433807 17.099165623893057 4.6632538360776365 0 0 0
455 1 28.05784200150179 17.99912185506506 3.1043466666666735 0 0 0
456 2 29.61661104756976 17.099165623893075 4.663253836077634 0 0 0
457 1 31.175380093637784 17.99912185506506 3.1043466666666615 0 0 0
458 2 32.734149139705714 17.09916562389308 4.663253836077651 0 0 0
459 1 34.29291818577369 17.99912185506509 3.104346666666665 0 0 0
201 1 1.5587682183462657 20.69899011472411 3.1043466666666886 0 0 0
202 1 4.676306310481645 20.698990114724293 3.1043466666666943 0 0 0
203 2 3.1175372644140533 19.799033883551985 4.66325383607788 0 0 0
204 1 7.793844402617927 20.698990114724364 3.104346666666682 0 0 0
205 2 6.235075356549716 19.79903388355237 4.663253836077605 0 0 0
206 2 9.352613448686126 19.799033883552497 4.663253836077611 0 0 0
207 1 10.911382494754209 20.698990114724484 3.104346666666663 0 0 0
208 2 12.470151540822139 19.799033883552408 4.663253836077644 0 0 0
209 1 14.028920586890141 20.698990114724396 3.1043466666666877 0 0 0
210 2 15.587689632958067 19.799033883552298 4.663253836077646 0 0 0
211 1 17.14645867902602 20.698990114724385 3.104346666666679 0 0 0
212 1 20.26399677116186 20.698990114724392 3.1043466666666633 0 0 0
213 2 18.705227725093888 19.799033883552326 4.663253836077642 0 0 0
214 1 23.381534863297784 20.698990114724413 3.104346666666679 0 0 0
215 2 21.82276581722978 19.79903388355237 4.6632538360775975 0 0 0
216 2 24.940303909365834 19.799033883552365 4.663253836077671 0 0 0
460 1 26.49907295543383 20.698990114724342 3.104346666666683 0 0 0
461 2 28.05784200150178 19.799033883552333 4.663253836077655 0 0 0
462 1 29.616611047569737 20.698990114724413 3.104346666666684 0 0 0
463 2 31.175380093637735 19.799033883552365 4.663253836077599 0 0 0
464 1 32.73414913970563 20.698990114724396 3.1043466666666553 0 0 0
465 2 34.29291818577367 19.799033883552365 4.663253836077653 0 0 0
217 2 1.5587682183460312 22.498902143211797 4.6632538360775415 0 0 0
218 2 4.676306310482131 22.49890214321151 4.663253836077627 0 0 0
219 1 3.1175372644143304 23.398858374383675 3.1043466666667285 0 0 0
220 1 6.235075356550142 23.3988583743836 3.1043466666666886 0 0 0
221 2 7.793844402618131 22.498902143211662 4.66325383607766 0 0 0
222 1 9.352613448686103 23.398858374383636 3.1043466666666433 0 0 0
223 2 10.911382494754095 22.498902143211687 4.6632538360776365 0 0 0
224 1 12.47015154082206 23.39885837438376 3.104346666666667 0 0 0
225 2 14.028920586890012 22.498902143211648 4.663253836077639 0 0 0
226 1 15.587689632958025 23.39885837438365 3.1043466666666744 0 0 0
227 2 17.146458679025994 22.498902143211634 4.663253836077618 0 0 0
228 2 20.263996771161885 22.498902143211634 4.663253836077625 0 0 0
229 1 18.70522772509389 23.398858374383696 3.1043466666666735 0 0 0
230 1 21.822765817229804 23.398858374383664 3.10434666666667 0 0 0
231 2 23.381534863297784 22.498902143211687 4.663253836077624 0 0 0
232 1 24.940303909365813 23.39885837438369 3.1043466666666832 0 0 0
466 2 26.49907295543377 22.498902143211655 4.663253836077646 0 0 0
467 1 28.05784200150179 23.39885837438365 3.1043466666666637 0 0 0
468 2 29.616611047569776 22.498902143211648 4.66325383607766 0 0 0
469 1 31.175380093637795 23.398858374383636 3.104346666666691 0 0 0
470 2 32.734149139705764 22.498902143211605 4.66325383607765 0 0 0
471 1 34.29291818577375 23.39885837438365 3.10434666666667 0 0 0
233 1 1.5587682183465696 26.098726634042944 3.1043466666666686 0 0 0
234 1 4.676306310481897 26.098726634042897 3.1043466666667743 0 0 0
235 2 3.117537264414345 25.198770402870867 4.663253836077899 0 0 0
236 1 7.793844402618003 26.0987266340428 3.1043466666666735 0 0 0
237 2 6.235075356549754 25.198770402870917 4.663253836077606 0 0 0
238 2 9.352613448686215 25.198770402870917 4.663253836077629 0 0 0
239 1 10.91138249475422 26.098726634042958 3.104346666666669 0 0 0
240 2 12.470151540822132 25.198770402870917 4.663253836077656 0 0 0
241 1 14.028920586890075 26.09872663404293 3.1043466666666806 0 0 0
242 2 15.587689632958016 25.198770402870903 4.663253836077663 0 0 0
243 1 17.14645867902595 26.09872663404293 3.1043466666666766 0 0 0
244 1 20.263996771161846 26.098726634042897 3.1043466666666744 0 0 0
245 2 18.705227725093916 25.198770402870917 4.663253836077679 0 0 0
246 1 23.38153486329781 26.09872663404293 3.1043466666667006 0 0 0
247 2 21.822765817229765 25.19877040287093 4.6632538360776685 0 0 0
248 2 24.940303909365824 25.198770402870917 4.663253836077656 0 0 0
472 1 26.49907295543381 26.098726634042897 3.104346666666671 0 0 0
473 2 28.057842001501758 25.198770402870917 4.663253836077627 0 0 0
474 1 29.61661104756978 26.098726634042944 3.1043466666666726 0 0 0
475 2 31.175380093637706 25.19877040287088 4.663253836077666 0 0 0
476 1 32.73414913970563 26.098726634042944 3.1043466666666775 0 0 0
477 2 34.292918185773715 25.198770402870945 4.663253836077626 0 0 0
249 2 1.5587682183459977 27.8986386625303 4.663253836077266 0 0 0
250 2 4.676306310482144 27.898638662530082 4.663253836077662 0 0 0
377 1 3.1175372644143677 28.79859489370213 3.1043466666666895 0 0 0
253 2 7.793844402617967 27.898638662530164 4.663253836077683 0 0 0
379 1 6.235075356550078 28.798594893702102 3.1043466666666855 0 0 0
382 1 9.352613448686089 28.798594893702063 3.1043466666666775 0 0 0
255 2 10.911382494754124 27.89863866253012 4.663253836077637 0 0 0
383 1 12.470151540822073 28.798594893702198 3.104346666666662 0 0 0
256 2 14.028920586889992 27.898638662530164 4.6632538360776055 0 0 0
384 1 15.587689632957948 28.79859489370216 3.104346666666665 0 0 0
254 2 17.14645867902599 27.89863866253012 4.663253836077633 0 0 0
252 2 20.26399677116186 27.89863866253015 4.6632538360776135 0 0 0
381 1 18.70522772509394 28.79859489370216 3.1043466666666646 0 0 0
251 2 23.381534863297848 27.898638662530164 4.663253836077639 0 0 0
380 1 21.82276581722982 28.798594893702145 3.1043466666666775 0 0 0
378 1 24.940303909365834 28.798594893702077 3.104346666666669 0 0 0
478 2 26.499072955433824 27.89863866253015 4.663253836077642 0 0 0
526 1 28.057842001501797 28.798594893702173 3.1043466666666655 0 0 0
479 2 29.616611047569798 27.898638662530136 4.663253836077622 0 0 0
527 1 31.175380093637717 28.798594893702102 3.1043466666666717 0 0 0
480 2 32.734149139705785 27.898638662530136 4.663253836077651 0 0 0
528 1 34.29291818577369 28.79859489370217 3.104346666666657 0 0 0
305 1 1.5587682183466414 31.498463153361726 3.104346666666567 0 0 0
297 2 3.1175372644143655 30.59850692218946 4.663253836077625 0 0 0
307 1 4.676306310481926 31.498463153361534 3.1043466666666126 0 0 0
298 2 6.23507535654965 30.598506922189408 4.663253836077586 0 0 0
309 1 7.793844402617923 31.49846315336126 3.1043466666666912 0 0 0
299 2 9.352613448686231 30.59850692218935 4.663253836077574 0 0 0
300 2 12.470151540822188 30.598506922189426 4.66325383607764 0 0 0
311 1 10.911382494754273 31.498463153361453 3.104346666666699 0 0 0
301 2 15.587689632957998 30.59850692218935 4.663253836077637 0 0 0
313 1 14.028920586890097 31.498463153361357 3.1043466666666695 0 0 0
315 1 17.14645867902594 31.498463153361413 3.104346666666676 0 0 0
302 2 18.705227725093916 30.598506922189433 4.663253836077626 0 0 0
317 1 20.263996771161853 31.498463153361467 3.104346666666679 0 0 0
303 2 21.82276581722982 30.59850692218935 4.663253836077602 0 0 0
319 1 23.381534863297823 31.4984631533614 3.104346666666671 0 0 0
304 2 24.94030390936582 30.598506922189337 4.663253836077641 0 0 0
499 1 26.499072955433768 31.498463153361467 3.1043466666666903 0 0 0
496 2 28.05784200150183 30.598506922189447 4.663253836077628 0 0 0
497 2 31.175380093637706 30.59850692218938 4.66325383607759 0 0 0
501 1 29.616611047569815 31.498463153361453 3.1043466666666824 0 0 0
498 2 34.292918185773644 30.598506922189426 4.663253836077593 0 0 0
503 1 32.734149139705615 31.498463153361413 3.104346666666693 0 0 0
306 2 1.5587682183460532 33.29837518184881 4.663253836077402 0 0 0
308 2 4.676306310481854 33.29837518184874 4.663253836077536 0 0 0