LAMMPS data file via write_data, version 21 Nov 2023, timestep = 135, units = metal

19042 atoms
3 atom types

0 623.5080061078895 xlo xhi
0 86.39580314041564 ylo yhi
0 50 zlo zhi
0 0 0 xy xz yz

Masses

1 95.94
2 32.065
3 32.065

Atoms # atomic

19042 3 1.558758051027229 0.8999341587570725 1.5454662699409563 0 0 0
14016 3 4.676299616558592 0.8999485161059582 1.5454499330445213 0 0 0
14017 3 7.7938431812460545 0.8999531958154703 1.5454343049224095 0 0 0
14018 3 10.911389849790536 0.8999530042460951 1.5454254374946632 0 0 0
14019 3 14.02893777476433 0.8999496977522139 1.5454273217852148 0 0 0
14020 3 17.146483497598386 0.8999412449099837 1.5454405201404537 0 0 0
14021 3 20.26402196610539 0.8999303068370728 1.5454591765406516 0 0 0
14022 3 23.38155731098537 0.8999146967140728 1.5454717857378126 0 0 0
13583 3 26.49908233445653 0.8999158432891723 1.5454702983685846 0 0 0
13584 3 29.61661428424788 0.8999228367623759 1.5454547877182692 0 0 0
13585 3 32.73415960230232 0.8999364306554597 1.5454398155530864 0 0 0
13586 3 35.85170457633332 0.8999414699223243 1.5454337075718925 0 0 0
4784 1 38.969249495490985 15.29926079653544 3.1043287507863915 0 0 0
14023 3 3.1175331731687743 3.5998142961429944 1.5454490321716172 0 0 0
14024 3 6.235073895559874 3.5998204780901326 1.5454388683190594 0 0 0
14025 3 9.352617323949916 3.5998237015673538 1.5454287285088963 0 0 0
14026 3 12.47016311965366 3.599824331720983 1.5454247907850844 0 0 0
14028 3 15.587708430020069 3.5998221366456935 1.5454301444964726 0 0 0
14040 3 18.70524845706187 3.599816594591706 1.5454404771712933 0 0 0
14029 3 21.822784929362754 3.5998087579895266 1.5454488623066263 0 0 0
14030 3 24.940317247653308 3.599805686032726 1.5454503488521267 0 0 0
13592 3 28.057851003117182 3.5998071951943382 1.5454434983458987 0 0 0
13593 3 31.175389891695854 3.599811001441041 1.5454329921589758 0 0 0
13569 3 34.292934051137266 3.5998160556458534 1.545426383942152 0 0 0
13568 3 37.4104792026589 3.599818891873856 1.5454272668520124 0 0 0
14031 3 1.5587667921046073 6.299685607877928 1.5454437678229718 0 0 0
14032 3 4.676306223467471 6.299688166069553 1.5454390477486049 0 0 0
14033 3 7.793848539510617 6.2996924031880415 1.5454332965716782 0 0 0
14034 3 10.911392100764084 6.299696008833588 1.5454300983819593 0 0 0
14035 3 14.028936645930047 6.29969768457263 1.5454327108505128 0 0 0
14036 3 17.14647890208236 6.299698245598503 1.5454406102534528 0 0 0
14037 3 20.2640155485991 6.299694941283228 1.5454483779474744 0 0 0
14038 3 23.381548421457737 6.299692502414737 1.5454508908855376 0 0 0
13545 3 26.499081851298534 6.299691629158015 1.5454464692754888 0 0 0
13546 3 29.616620297613125 6.299690000689922 1.5454377568579194 0 0 0
13547 3 32.73416223627037 6.299690646860288 1.5454294740259797 0 0 0
13548 3 35.85170754241866 6.299692201647781 1.5454264596363334 0 0 0
11984 2 14.02893265803458 27.898643767790723 4.663247399987865 0 0 0
14039 3 3.117537772537018 8.999558580391453 1.5454367527217714 0 0 0
14015 3 6.235080031792123 8.999560894147855 1.545434287964535 0 0 0
14027 3 9.352623423611158 8.999564356624212 1.5454353228501732 0 0 0
14014 3 12.470167527341607 8.999568170104315 1.545440355797596 0 0 0
13999 3 15.587711417349464 8.999571905483142 1.5454501714792421 0 0 0
13988 3 18.705252939921422 8.999579374244087 1.5454615040732378 0 0 0
13989 3 21.822780664467945 8.999574466144246 1.5454662179700347 0 0 0
13990 3 24.94030727352247 8.999576167710313 1.5454626802972706 0 0 0
13554 3 28.057847074840996 8.999566602454589 1.5454506403619688 0 0 0
13555 3 31.175389889015058 8.999563399627815 1.5454385175964753 0 0 0
13556 3 34.29293485939275 8.999563044452668 1.5454311399581822 0 0 0
13557 3 37.41048103324149 8.999563715771236 1.5454315690883078 0 0 0
13991 3 1.5587681460520282 11.699429908787943 1.5454366242643645 0 0 0
13992 3 4.676309876880339 11.699430943946334 1.545434383726395 0 0 0
13993 3 7.793853458113809 11.699432260239199 1.5454362776353845 0 0 0
13994 3 10.911397867440238 11.699434330512616 1.5454432474931163 0 0 0
13995 3 14.028943710704153 11.699437618047881 1.5454558198115986 0 0 0
13996 3 17.14648990922231 11.699443702821917 1.5454748243816991 0 0 0
13997 3 20.26403872202189 11.699468086600898 1.5455103924069866 0 0 0
13998 3 23.381520164742984 11.699467072630389 1.5455086222445868 0 0 0
13463 3 26.499068824843818 11.699441022163729 1.5454694916442624 0 0 0
13464 3 29.61661498295898 11.699434694838654 1.5454480495026026 0 0 0
13465 3 32.73416117331049 11.699432382647691 1.5454348388242303 0 0 0
13466 3 35.85170724702739 11.699431568578959 1.545429859252555 0 0 0
12058 2 4.676312102297676 27.898647091028668 4.663247643516552 0 0 0
14000 3 3.1175388338160475 14.399301196505427 1.5454371906589837 0 0 0
14012 3 6.235081675585637 14.399301386634193 1.5454365506439935 0 0 0
14001 3 9.352625809928858 14.399301044019673 1.5454409810555656 0 0 0
14002 3 12.470171512609065 14.399300640779916 1.5454504177444508 0 0 0
14003 3 15.5877228273364 14.399300680191352 1.5454670842526164 0 0 0
14004 3 18.705287303739482 14.399306389009526 1.5455105852184245 0 0 0
14005 3 21.822780577122597 14.399300614090938 1.5454025610408726 0 0 0
14006 3 24.940273549515908 14.399308640307526 1.5455051251694847 0 0 0
13472 3 28.057836415184838 14.39930403766822 1.545457635906329 0 0 0
13473 3 31.175386813985202 14.399303622891189 1.5454381263666177 0 0 0
13474 3 34.29293224557314 14.399302455852567 1.545426988745921 0 0 0
13475 3 37.410478776388395 14.399300617429391 1.5454234149675872 0 0 0
14007 3 1.5587683489331565 17.099170315248518 1.5454415765732714 0 0 0
14008 3 4.676309462256663 17.099170445641647 1.5454387813694948 0 0 0
14009 3 7.793852312534721 17.099169588308797 1.5454386104447817 0 0 0
14010 3 10.91139526369981 17.0991674829459 1.5454420177569281 0 0 0
14011 3 14.028939588430571 17.099164381347 1.5454489457021605 0 0 0
14013 3 17.146485178092554 17.099159425974854 1.5454622120113273 0 0 0
14042 3 20.26403078543235 17.09912725690585 1.5455023987754566 0 0 0
14069 3 23.381536015094056 17.09913242088076 1.5455026087774053 0 0 0
13480 3 26.499077844261766 17.099170290839226 1.5454622000370208 0 0 0
13481 3 29.616618742656737 17.09917711855219 1.545445040247902 0 0 0
13482 3 32.73415969126818 17.09917853578399 1.5454311338416165 0 0 0
13458 3 35.85170284152752 17.099177094643544 1.5454203748327782 0 0 0
12445 2 32.734172435157454 27.898631881279464 4.663396407268689 0 0 0
14043 3 3.117538408581101 19.799038640050465 1.5454412723753952 0 0 0
14072 3 6.235079651098199 19.799038287198087 1.5454376197428004 0 0 0
14073 3 9.352622087071635 19.799036745351334 1.545435925083449 0 0 0
14074 3 12.470164323971343 19.79903463394742 1.5454354768245173 0 0 0
14075 3 15.587709279197577 19.799031796244694 1.545438650741439 0 0 0
14076 3 18.705256001975503 19.799023329027374 1.5454511386392662 0 0 0
14077 3 21.82278821739843 19.799027216201065 1.5454651704144813 0 0 0
14078 3 24.940318430374667 19.799038206778487 1.5454645609268327 0 0 0
13434 3 28.05785568683451 19.799054503665246 1.5454583935469712 0 0 0
13435 3 31.17538967433075 19.799059842466274 1.5454494344225318 0 0 0
13436 3 34.292926121739875 19.799059395890602 1.545434960689458 0 0 0
13437 3 37.4104715688629 19.799053546393523 1.5454228168967707 0 0 0
14079 3 1.5587690103241136 22.49890662091381 1.5454405356454037 0 0 0
14080 3 4.676308245664708 22.49890699118417 1.545437048212415 0 0 0
14081 3 7.793850338224857 22.49890675276264 1.5454320845143636 0 0 0
14082 3 10.911392841126128 22.49890648991563 1.5454289275500375 0 0 0
14084 3 14.028936596459808 22.498907034462754 1.5454273774264533 0 0 0
14096 3 17.146483661174425 22.49890743314879 1.5454338174087467 0 0 0
14085 3 20.26402600481471 22.498910806019936 1.5454504802289306 0 0 0
13901 3 23.381564948407135 22.498920984604815 1.5454680623361434 0 0 0
13442 3 26.499102650800165 22.498941081726837 1.5454818639883754 0 0 0
13443 3 29.61662549911091 22.4989457313659 1.545486107504402 0 0 0
13444 3 32.73414874389108 22.49894997303117 1.5454750664550212 0 0 0
13445 3 35.851688990468794 22.498937915594905 1.5454517192715929 0 0 0
12444 2 26.499067017514452 27.898640764081005 4.663395107381804 0 0 0
13900 3 3.117538871351251 25.198776729242145 1.5454363453664535 0 0 0
13877 3 6.235079507559687 25.198777933872893 1.545431619827917 0 0 0
13878 3 9.352622124654985 25.198778766903924 1.5454273866408819 0 0 0
13879 3 12.470166273227868 25.198780802878865 1.5454252516840257 0 0 0
13880 3 15.587714311579553 25.198784492451068 1.54543010922042 0 0 0
13881 3 18.705261754380786 25.19879113540081 1.545447913444268 0 0 0
13882 3 21.82280575716344 25.19879893335443 1.5454754942100273 0 0 0
13883 3 24.940349727937274 25.19881513559712 1.5455103696748618 0 0 0
13451 3 28.05789446595647 25.198852152064955 1.5455620362197011 0 0 0
13452 3 31.175361786186752 25.19885033047122 1.5455614191610179 0 0 0
13453 3 34.29290525826022 25.19882544412104 1.5455108613388906 0 0 0
13454 3 37.41045306541791 25.19880956459038 1.5454737845698745 0 0 0
13884 3 1.5587697380923815 27.89864771238268 1.5454356628772592 0 0 0
13885 3 4.676310404919527 27.89864900914512 1.5454342431938441 0 0 0
13886 3 7.793852256563078 27.898651037472323 1.5454314064062564 0 0 0
13887 3 10.911396448791741 27.898653437260297 1.5454297038671603 0 0 0
13888 3 14.028946101940852 27.89865952415202 1.5454342942044574 0 0 0
13889 3 17.146496339769076 27.89866560162447 1.5454545810167033 0 0 0
13890 3 20.26404512240274 27.898678248626798 1.5454878254462485 0 0 0
13891 3 23.38158911332156 27.898682605616813 1.5455289006329624 0 0 0
13515 3 26.499151160759208 27.898701856468318 1.5456016562006867 0 0 0
13516 3 29.61664538841309 27.898701888405505 1.5455236555203098 0 0 0
13517 3 32.73410572256212 27.898710155978183 1.5456145008126343 0 0 0
13518 3 35.85166747138552 27.898692241174544 1.545539493124648 0 0 0
12446 2 35.851725473963285 27.89863342846244 4.663353840019281 0 0 0
11848 2 1.5587714560044414 0.8999543908342382 4.663279008645224 0 0 0
4454 1 3.1175350241132067 1.7999051948033526 3.1043614732480216 0 0 0
11849 2 4.676314694844104 0.8999553239975795 4.663263231052704 0 0 0
4453 1 6.235077990169389 1.79990901201304 3.1043472772976126 0 0 0
11850 2 7.793855491756229 0.8999539793273642 4.663247626468533 0 0 0
4451 1 9.352620507135377 1.7999098367389046 3.1043349390567236 0 0 0
4449 1 12.47016304459617 1.7999093992874162 3.104330349760472 0 0 0
11851 2 10.911393549584758 0.899954484458131 4.663238745731518 0 0 0
4448 1 15.587705337451677 1.7999074443593788 3.1043367657048067 0 0 0
11779 2 14.028930196566254 0.8999549159480784 4.663240582134724 0 0 0
11778 2 17.146467544168356 0.8999549314196069 4.663253692759235 0 0 0
4444 1 18.705245360982083 1.7999048915101588 3.104351535952849 0 0 0
11777 2 20.264006726016596 0.8999589091769576 4.663272413958034 0 0 0
4443 1 21.822785216921115 1.7998994438762113 3.1043644037830247 0 0 0
11776 2 23.381550609731278 0.8999562156747827 4.663284380681252 0 0 0
4441 1 24.940319917802423 1.7998989090147037 3.104368897757644 0 0 0
4827 1 28.057854831232348 1.7998992646940426 3.1043604166904863 0 0 0
12486 2 26.499091550185017 0.8999631507619377 4.663286418370763 0 0 0
4814 1 31.17539264084651 1.799900617239039 3.1043456702580903 0 0 0
12290 2 29.61663144907339 0.8999546070815083 4.663267443910955 0 0 0
12215 2 32.73416941091205 0.8999566512010195 4.663252983177248 0 0 0
4811 1 34.29293461306382 1.7999050485802814 3.1043370674820454 0 0 0
12216 2 35.85170622945717 0.8999561330939407 4.663246984794114 0 0 0
4810 1 37.41047589989597 1.7999067677456886 3.104336659850725 0 0 0
11907 2 20.264006054121257 27.898638882787523 4.663300258178263 0 0 0
4440 1 1.5587674110156482 4.4997765375943874 3.1043562278722594 0 0 0
4439 1 4.676307619163242 4.499777363972239 3.104349322357069 0 0 0
11702 2 3.117541003401284 3.5998241354099263 4.663262321571911 0 0 0
4438 1 7.793849646997422 4.499778935621425 3.104339810955954 0 0 0
11703 2 6.2350837302540025 3.5998237954190766 4.663252246832603 0 0 0
11704 2 9.352624039250639 3.5998223128521873 4.663242104193093 0 0 0
4461 1 10.911391678430716 4.49977926656013 3.104332960510681 0 0 0
11705 2 12.470161982497004 3.599821138931478 4.663238148380838 0 0 0
4462 1 14.028933512408742 4.4997788683542 3.1043335188878047 0 0 0
11706 2 15.58769973748754 3.5998207285752377 4.66324332639575 0 0 0
4483 1 17.146474432535182 4.499778621547268 3.1043417395671224 0 0 0
4482 1 20.264013527809546 4.4997756265605044 3.10435094504992 0 0 0
11707 2 18.705238724681024 3.5998212137731396 4.663253796396995 0 0 0
4480 1 23.381550529759206 4.499774334250366 3.1043551052273552 0 0 0
11708 2 21.822779925230307 3.5998204230134707 4.66326201445068 0 0 0
11709 2 24.940319955607517 3.599821907667334 4.663263695159707 0 0 0
4830 1 26.49908686182834 4.499774168963191 3.10435158331967 0 0 0
12222 2 28.05786069068771 3.5998212133600487 4.663256669704074 0 0 0
4852 1 29.61662499310991 4.499773572571555 3.104342734805065 0 0 0
12223 2 31.175399078121348 3.599819524674535 4.663246164315757 0 0 0
4850 1 32.73416460186975 4.499774556223591 3.10433414809649 0 0 0
4849 1 35.85170620657378 4.499776719281831 3.104331294671893 0 0 0
12224 2 34.29293730222564 3.5998214305269105 4.6632396810247565 0 0 0
12034 2 10.911394892263322 27.898645210300753 4.663243013302323 0 0 0
12226 2 37.41047512828599 3.5998221242414083 4.663240541500004 0 0 0
11710 2 1.558769845128999 6.299694451810604 4.6632572425209275 0 0 0
4476 1 3.1175385024394724 7.199647417159567 3.1043462731906337 0 0 0
11711 2 4.676311356503113 6.299693601393722 4.6632524104864554 0 0 0
4475 1 6.235079400322338 7.199648007068756 3.1043418835268635 0 0 0
11713 2 7.79385190720848 6.299691811585273 4.663246718270715 0 0 0
4474 1 9.352621018037766 7.199648692845179 3.1043388994489014 0 0 0
4471 1 12.470162711653227 7.199648993079997 3.1043399588453826 0 0 0
11724 2 10.911391593879005 6.299688994657258 4.6632435037499125 0 0 0
4469 1 15.587703985049044 7.1996495468285575 3.104346825740363 0 0 0
11714 2 14.028930238899365 6.299687103784676 4.663246083464102 0 0 0
11715 2 17.146470130917457 6.299687616911028 4.663253849692887 0 0 0
4467 1 18.705244581512684 7.1996515350820305 3.104354858746357 0 0 0
11716 2 20.264009410022826 6.299685397329938 4.663261553131575 0 0 0
4466 1 21.822780959497123 7.199649144498235 3.104360846697675 0 0 0
11717 2 23.381549876461243 6.299685440997224 4.663264143944252 0 0 0
4464 1 24.940316593998524 7.199650195256627 3.1043585708923946 0 0 0
4837 1 28.057855461735457 7.19964702327782 3.1043512154044866 0 0 0
12247 2 26.499089409412953 6.299686900005554 4.663259632621075 0 0 0
4836 1 31.175395235028898 7.1996464171173695 3.1043410334432764 0 0 0
12248 2 29.616629977894124 6.299686063908054 4.663250991091648 0 0 0
12249 2 32.73416895010258 6.299686912057997 4.663242630070499 0 0 0
4833 1 34.29293620284481 7.199646931528148 3.1043344152663086 0 0 0
12250 2 35.85170695194625 6.2996887644037 4.663239705771534 0 0 0
4832 1 37.410478059970956 7.199648190819369 3.1043355889430924 0 0 0
12057 2 1.5587696976388414 27.898647905043088 4.663249084810159 0 0 0
4463 1 1.5587689363581536 9.899517030990665 3.104343918253144 0 0 0
4538 1 4.676309645717236 9.899517474801234 3.1043412044299923 0 0 0
11718 2 3.117540726662629 8.999562692501991 4.663250262222651 0 0 0
4540 1 7.793850745322801 9.899517907634506 3.1043414724188736 0 0 0
11719 2 6.235080195195746 8.999561524242871 4.6632477547903255 0 0 0
11720 2 9.352619593475234 8.999559348835549 4.663248759996816 0 0 0
4615 1 10.911392332180954 9.899518457592643 3.1043460839832413 0 0 0
11721 2 12.470158958931894 8.99955652573315 4.6632537365347035 0 0 0
4613 1 14.028934123082164 9.899519317820213 3.1043555221273516 0 0 0
11722 2 15.587698708332397 8.999554165530258 4.663263507688511 0 0 0
4611 1 17.14647553249678 9.89952114258322 3.1043695214121754 0 0 0
4610 1 20.264019689795617 9.899526496174378 3.104380769232309 0 0 0
11723 2 18.70524231843721 8.999554846595364 4.66327419226435 0 0 0
4609 1 23.381541165065396 9.899526604914113 3.104380644032189 0 0 0
11701 2 21.822780287010637 8.999550944595333 4.663282072693595 0 0 0
11712 2 24.940318344018667 8.9995562727145 4.663275303926902 0 0 0
4770 1 26.49908452344338 9.899520965462866 3.104368289826515 0 0 0
12256 2 28.05786151959286 8.999556086265269 4.663263821213387 0 0 0
4769 1 29.616624831580435 9.899519020001902 3.104352535520238 0 0 0
12257 2 31.17540059442404 8.999558063606676 4.663251678888514 0 0 0
4767 1 32.73416594940543 9.899518486701576 3.1043413593546507 0 0 0
4766 1 35.85170763657554 9.89951873835903 3.1043373779907615 0 0 0
12258 2 34.29293861834574 8.999559011072094 4.663244284014835 0 0 0
3648 1 38.969247032405214 20.699001974850063 3.104329944793589 0 0 0
12259 2 37.410476634334024 8.999560354213669 4.663244756538085 0 0 0
11700 2 1.558770558943927 11.69943022803256 4.663250168876922 0 0 0
4604 1 3.1175397022779237 12.599386749813993 3.1043420909155706 0 0 0
11687 2 4.676310383075916 11.699430063084005 4.6632479196102015 0 0 0
4603 1 6.235080613446689 12.59938712945983 3.1043416232819316 0 0 0
11677 2 7.793848987802277 11.699429723718206 4.663249759358412 0 0 0
4601 1 9.352622016443394 12.599387533910818 3.10434645104037 0 0 0
4599 1 12.470164090060475 12.599388230860656 3.1043573686988517 0 0 0
11678 2 10.911388093206432 11.699428991059008 4.663256668501227 0 0 0
4597 1 15.587706821982653 12.599389482220326 3.104374346445357 0 0 0
11679 2 14.028926895595045 11.699428073050512 4.663269160156471 0 0 0
11680 2 17.146463269091285 11.699423748973055 4.663290887092772 0 0 0
4595 1 18.705244364475583 12.59938976668998 3.1044034309095565 0 0 0
11681 2 20.26401258228336 11.699417705649715 4.663304131727416 0 0 0
4605 1 21.822780488732743 12.599480659233945 3.104437354775626 0 0 0
11682 2 23.38155066128589 11.69941956622689 4.66330235702214 0 0 0
4619 1 24.94031656786409 12.599390995238785 3.10439839020336 0 0 0
4753 1 28.057853208941268 12.599391287223082 3.104365429519739 0 0 0
12188 2 26.499098854031047 11.699427274380632 4.663285430524149 0 0 0
4777 1 31.175395065197826 12.599390520667734 3.1043465730805586 0 0 0
12187 2 29.616633368537 11.699432236984082 4.663261180892244 0 0 0
12136 2 32.73417062434969 11.699433129738717 4.663247956030001 0 0 0
4800 1 34.29293683002393 12.599390301503842 3.1043364835236877 0 0 0
12114 2 35.8517084628214 11.699434113275723 4.663242963129119 0 0 0
4799 1 37.41047897612704 12.599390159070623 3.104334966126774 0 0 0
7787 2 6.576335874626467e-09 14.399298167460824 4.663253420155077 1 0 0
4620 1 1.5587694970299317 15.299256095967811 3.1043462651795886 0 0 0
4643 1 4.676310415937419 15.299256347249973 3.10434376581706 0 0 0
11683 2 3.117541108354175 14.399298248249396 4.663250718410625 0 0 0
4641 1 7.793851715761671 15.299256649298584 3.104345022579275 0 0 0
11684 2 6.2350803256077425 14.39929885628628 4.663250045562587 0 0 0
11685 2 9.352619576695433 14.39930017272553 4.663254346077231 0 0 0
4638 1 10.911393970571849 15.299256928957716 3.1043515491158935 0 0 0
11686 2 12.470160024760084 14.399301973113374 4.663263673121756 0 0 0
4636 1 14.028937969431908 15.299257204845164 3.1043622186010804 0 0 0
11688 2 15.587701095421687 14.399305179402388 4.663279742370346 0 0 0
4634 1 17.146485270893923 15.299261129147798 3.1043824846049484 0 0 0
4633 1 20.264092421560886 15.299214036914226 3.10443460921147 0 0 0
11698 2 18.70523492272643 14.399309745770811 4.663304459170472 0 0 0
4631 1 23.381471161619682 15.299216036656714 3.104431575871727 0 0 0
11689 2 24.940329492451912 14.399310774513925 4.663299067664504 0 0 0
4801 1 26.499076613359502 15.299264693257427 3.104375549506427 0 0 0
12119 2 28.05786188951478 14.399307036215511 4.663270128716929 0 0 0
4788 1 29.6166224717391 15.2992617680101 3.1043514122554825 0 0 0
12120 2 31.175401410942385 14.399305691437696 4.663251119312402 0 0 0
4787 1 32.734165423874295 15.299262224315381 3.1043369438874837 0 0 0
4786 1 35.85170734145193 15.29926205791996 3.104327821557068 0 0 0
12121 2 34.292940679874405 14.399306662245287 4.663240023405016 0 0 0
13519 3 38.96921726135676 27.898674397120782 1.5454916352199388 0 0 0
12122 2 37.41047784711172 14.399307864087486 4.6632365331166445 0 0 0
11690 2 1.5587705878392115 17.09916796945463 4.663255063783907 0 0 0
4626 1 3.1175399653346 17.999125736929464 3.104347670181466 0 0 0
11691 2 4.676311598251729 17.09916829379789 4.663252276647535 0 0 0
4625 1 6.23508107894082 17.999126002210343 3.1043451800616535 0 0 0
11692 2 7.79385117618459 17.099169850432144 4.663252060478684 0 0 0
4623 1 9.352622497687411 17.999126260930232 3.1043455508551108 0 0 0
4622 1 12.47016428418634 17.999126418336868 3.104348451229989 0 0 0
11693 2 10.911391520191335 17.099172633286372 4.663255410868731 0 0 0
4594 1 15.587706295176636 17.999126193964674 3.1043559277966 0 0 0
11694 2 14.028931192623691 17.09917624447825 4.663262238129959 0 0 0
11695 2 17.146467595877855 17.09918032867806 4.663278069660157 0 0 0
4591 1 18.705246839353325 17.99911751644177 3.1043721035458764 0 0 0
11696 2 20.264002378420432 17.099182136246046 4.663296224509249 0 0 0
4563 1 21.822782383056964 17.999129206532263 3.104392246347648 0 0 0
11697 2 23.381561130180785 17.099181354645683 4.66329650838052 0 0 0
4561 1 24.94031756022489 17.999122619214607 3.1043761929747204 0 0 0
3669 1 28.05785593932166 17.99913313502525 3.1043598551942577 0 0 0
12127 2 26.499096181714293 17.0991781938418 4.663277904984056 0 0 0
3667 1 31.175395863928966 17.99913446977889 3.104345981630541 0 0 0
12128 2 29.61663296321322 17.09917461208477 4.663258105223994 0 0 0
12129 2 32.734172440732756 17.099174517303023 4.663244255686834 0 0 0
3665 1 34.29293604743754 17.99913485131765 3.1043324567932693 0 0 0
12130 2 35.85171057498646 17.099175624435773 4.663233472507233 0 0 0
3664 1 37.41047762614787 17.99913275965577 3.104323727647407 0 0 0
11985 2 7.793853951467022 27.89864589185815 4.663244778341008 0 0 0
4560 1 1.5587693548572814 20.698995323826455 3.1043492620001802 0 0 0
4559 1 4.676310603731076 20.69899548518374 3.1043456810338004 0 0 0
11699 2 3.117541589276538 19.799039052828256 4.663254726477911 0 0 0
4557 1 7.793851940172832 20.698995797348598 3.104341837607485 0 0 0
11725 2 6.235082908813929 19.799039971394336 4.6632510686416655 0 0 0
11726 2 9.35262329035527 19.799042219848104 4.663249316473372 0 0 0
4555 1 10.911393466911823 20.69899618246991 3.1043398598940803 0 0 0
11727 2 12.470164140050965 19.7990447874388 4.663248824547735 0 0 0
4564 1 14.028935110618589 20.69899628190672 3.1043388774048135 0 0 0
11753 2 15.587702150675742 19.799046952573306 4.66325192593756 0 0 0
4551 1 17.146477247350965 20.698994545557486 3.1043442168023065 0 0 0
4550 1 20.264014862661497 20.698996501420645 3.104360185287378 0 0 0
11754 2 18.705238528643246 19.799044647381315 4.6632638302059535 0 0 0
4548 1 23.381552104003518 20.69899962206546 3.104370598285074 0 0 0
11755 2 21.822779393468362 19.799052980305497 4.663281261082637 0 0 0
11756 2 24.940321947872434 19.79904194902412 4.6632770430382635 0 0 0
3655 1 26.49908911046418 20.69900528019297 3.104370415724441 0 0 0
12112 2 28.05786025703839 19.799039985262286 4.663271494282585 0 0 0
3653 1 29.616626296065476 20.699007636662866 3.1043686323878785 0 0 0
12111 2 31.175401353339762 19.799038024319216 4.663262475403578 0 0 0
3651 1 32.73416386836234 20.699009472338314 3.104356276155414 0 0 0
3650 1 35.85170478240806 20.6990055338113 3.104339636522389 0 0 0
12110 2 34.29294185802719 19.79903965767767 4.663248032105168 0 0 0
11908 2 23.38153964603529 27.898635605379617 4.6633437798924815 0 0 0
12089 2 37.41047967518614 19.799039929333873 4.663235996860873 0 0 0
12041 2 1.5587696829762872 22.498910359207986 4.663253968448037 0 0 0
4289 1 3.1175400286748673 23.398865068139067 3.104345069458483 0 0 0
12042 2 4.67631323988997 22.498910331056017 4.6632504781173845 0 0 0
4302 1 6.2350814339518905 23.39886532144543 3.10433989915181 0 0 0
12043 2 7.793854074321937 22.49891126646553 4.663245505241836 0 0 0
4304 1 9.352622963387155 23.398865758011798 3.1043354440923525 0 0 0
4326 1 12.470164725760126 23.398866477125654 3.1043321403586597 0 0 0
12044 2 10.911394826756105 22.498912601588547 4.663242283202673 0 0 0
4324 1 15.587706336192145 23.39886650557483 3.104333859789339 0 0 0
12045 2 14.02893416148749 22.49891239929658 4.6632407163871346 0 0 0
12046 2 17.146470285749338 22.49891075209289 4.663246947012479 0 0 0
4321 1 18.705246507668623 23.398868786652066 3.104347768380318 0 0 0
12048 2 20.264005828808127 22.49891108232531 4.663263754185073 0 0 0
4320 1 21.82278555809649 23.398870960472525 3.1043685398469654 0 0 0
12059 2 23.381546447565746 22.498907222971088 4.6632812830709645 0 0 0
4318 1 24.94032436931513 23.39887621762645 3.1043907755893785 0 0 0
3635 1 28.057866432994757 23.398886131466227 3.1044088664875074 0 0 0
12477 2 26.499088343376105 22.498903386296508 4.663294290400984 0 0 0
3644 1 31.175387437079486 23.398885362636413 3.1044071913944915 0 0 0
12478 2 29.616627836175024 22.498897028488663 4.663301718658672 0 0 0
12479 2 32.73417011564112 22.498900838587222 4.663287493802593 0 0 0
3631 1 34.29293106146616 23.39888049695519 3.104383884286064 0 0 0
12480 2 35.85171376999638 22.498901447339726 4.663264832516575 0 0 0
3630 1 37.41047321783395 23.39887407502866 3.1043567900055713 0 0 0
4775 1 38.969249953082056 9.899519408502865 3.1043415021383254 0 0 0
4317 1 1.5587694700021364 26.098734655146448 3.104342993131136 0 0 0
4316 1 4.676310913665833 26.09873485445143 3.1043405208513755 0 0 0
12049 2 3.117541476081105 25.19877980359528 4.663249770859178 0 0 0
4314 1 7.793852519308162 26.098735200423043 3.104335920238495 0 0 0
12050 2 6.235083861185695 25.198779144919353 4.663245043105331 0 0 0
12051 2 9.352624770303722 25.19877933571517 4.663240780368309 0 0 0
4312 1 10.911394462114211 26.098735921429572 3.10433218457722 0 0 0
12052 2 12.470165084909187 25.198779421406552 4.663238486702278 0 0 0
4310 1 14.028936924473722 26.09873750987005 3.104333650725193 0 0 0
12053 2 15.58770074231236 25.198776462554395 4.663243333227536 0 0 0
4308 1 17.146478114698976 26.098738754202778 3.1043473551324596 0 0 0
4307 1 20.264019642225854 26.09874330040263 3.1043745720433704 0 0 0
12054 2 18.70523657131482 25.198775382743484 4.66326106051266 0 0 0
4305 1 23.381558397614665 26.09874554096045 3.10441055858175 0 0 0
12055 2 21.822771874581527 25.198771767611163 4.663288702287178 0 0 0
12056 2 24.94030523926747 25.198764231064562 4.663326318016561 0 0 0
3622 1 26.49909298327831 26.09875088873069 3.1044597709355224 0 0 0
12473 2 28.057855201868172 25.198757305420656 4.663355652027853 0 0 0
3699 1 29.616631544707996 26.098842300363128 3.104510460403079 0 0 0
12461 2 31.175400441722605 25.19875259804733 4.663356739928336 0 0 0
3700 1 32.734156985133 26.09875160320603 3.1044611134697937 0 0 0
3774 1 35.85169971694443 26.09874836603866 3.104413095734924 0 0 0
12448 2 34.29294967672826 25.198764259505236 4.663325884395025 0 0 0
11930 2 17.14646606180973 27.898639209542687 4.663267664188161 0 0 0
12439 2 37.41048725330391 25.198766059706497 4.663286829012891 0 0 0
3772 1 38.96924193280952 26.098741905506134 3.1043767416872594 0 0 0
13446 3 38.96923827382535 22.498926824909574 1.5454346564614803 0 0 0
13587 3 38.969247198300245 0.8999450655941564 1.5454338283490152 0 0 0
12115 2 38.96924661114107 11.699435275308625 4.663246595059944 0 0 0
12131 2 38.969246461216144 17.099175970216542 4.6632319965739155 0 0 0
4847 1 38.969247875872696 4.499778280857984 3.1043359257722596 0 0 0
12252 2 38.96924544024771 6.299690330445579 4.663244681940025 0 0 0
12217 2 38.969245974766615 0.8999555485973834 4.663247087798693 0 0 0
3764 1 28.05794623109837 28.79856963241643 3.104562486294188 0 0 0
13892 3 3.1175409705091615 30.598520448653794 1.5454381560005104 0 0 0
13893 3 6.235082475804127 30.598521890822227 1.5454379185421852 0 0 0
13894 3 9.352626559725245 30.598524306181275 1.545438652465012 0 0 0
13895 3 12.470176050090126 30.598529022486648 1.5454443702716016 0 0 0
13896 3 15.587732071576845 30.598541382305008 1.5454648503437955 0 0 0
13897 3 18.705278182046285 30.598544035592916 1.545502550914609 0 0 0
13898 3 21.822828439822132 30.59857250443847 1.545567873523643 0 0 0
13899 3 24.94033174087848 30.59856438285051 1.545611587645364 0 0 0
13524 3 28.057912735697357 30.59851853697447 1.5456834364151195 0 0 0
13525 3 31.175360620732405 30.59852455515677 1.5455830713027503 0 0 0
13527 3 34.292862564950305 30.59854601882657 1.545627356365691 0 0 0
13539 3 37.41045522186573 30.598556421182067 1.5455652638106587 0 0 0
13915 3 1.5587725500083223 33.298394209554004 1.5454469565136406 0 0 0
13929 3 4.67631090751462 33.298394658405044 1.5454479258041143 0 0 0
13930 3 7.793853077147421 33.29839508161546 1.5454480690946453 0 0 0
13931 3 10.911402625028577 33.29839448910229 1.5454529591068806 0 0 0
13960 3 14.028960250003164 33.29839846433464 1.545471056784928 0 0 0
13961 3 17.14653421945891 33.29842354601649 1.5455286349865214 0 0 0
13962 3 20.26405324428041 33.298425961478664 1.5455972210147986 0 0 0
13963 3 23.381571315556286 33.29838758594447 1.545489353050112 0 0 0
13766 3 26.499107988052028 33.298378391873406 1.5456571730824817 0 0 0
13767 3 29.616623511505438 33.29833390993346 1.545559632047395 0 0 0
13768 3 32.7341001016724 33.29832719467505 1.5456610879989288 0 0 0
13769 3 35.85170167656209 33.29837483934132 1.5455835448126294 0 0 0
10056 2 31.175402806411388 57.5971984490549 4.663322534677071 0 0 0
13964 3 3.1175417732126505 35.99826957361747 1.5454663651004588 0 0 0
13965 3 6.235073636319758 35.99827185824584 1.545464591251004 0 0 0
13966 3 9.352622511048025 35.998261210436794 1.5454603380588867 0 0 0
13967 3 12.470180593421645 35.99825629299682 1.5454661850993747 0 0 0
13968 3 15.587755558554303 35.99825576970394 1.5455098716808104 0 0 0
13969 3 18.705265433765984 35.99823959885728 1.545424478033993 0 0 0
13970 3 21.82277177986257 35.99820069011941 1.545601237735015 0 0 0
13972 3 24.940309890783453 35.998188829370186 1.5455884786967293 0 0 0
13775 3 28.057869082367105 35.99816842493595 1.5456025900075916 0 0 0