LAMMPS data file via write_data, version 21 Nov 2023, timestep = 5411, units = metal

19136 atoms
3 atom types

0 623.5083112196697 xlo xhi
0 86.39584532572758 ylo yhi
0 50 zlo zhi
0 0 0 xy xz yz

Masses

1 95.94
2 32.065
3 32.065

Atoms # atomic

19136 3 1.5587740293235615 0.8999407492094225 1.5454535285472726 0 0 0
14110 3 4.676315074803015 0.8999458407410041 1.5454521652147735 0 0 0
14111 3 7.793861239096734 0.8999523830953563 1.5454540376798642 0 0 0
14112 3 10.911410622898666 0.8999619756611573 1.5454660216575906 0 0 0
14113 3 14.02896245446897 0.8999893343252381 1.5454996126986282 0 0 0
14114 3 17.146448687706993 0.8999918514562469 1.5455008798804422 0 0 0
14115 3 20.263998551805 0.8999699236317323 1.5454661229300384 0 0 0
14116 3 23.381545791570122 0.8999662224899646 1.545447162049363 0 0 0
13677 3 26.499091954712906 0.8999643553815495 1.5454345091765629 0 0 0
13678 3 29.616636159017066 0.899963971444333 1.5454275004945328 0 0 0
13679 3 32.73417915130421 0.8999631260892282 1.5454222702138785 0 0 0
13680 3 35.851722789395545 0.8999608044459774 1.54541932923767 0 0 0
12536 2 35.85172428859058 27.898658024638642 4.6632428014695435 0 0 0
7921 2 7.804375109406043e-07 3.599825574269917 4.663253059172906 1 0 0
14117 3 3.117547797832531 3.59981638637122 1.545444652390059 0 0 0
14118 3 6.235091132865446 3.5998194317968304 1.5454472317218084 0 0 0
14119 3 9.352644124957584 3.599822944542114 1.5454565751448495 0 0 0
14120 3 12.470209828997115 3.5998291589858673 1.5454960621449878 0 0 0
14122 3 15.587707475227258 3.59982542834227 1.5453897108572616 0 0 0
14134 3 18.70520553100842 3.599834850035808 1.545501760811221 0 0 0
14123 3 21.822769154929997 3.5998343781365287 1.5454620081844401 0 0 0
14124 3 24.940321991401014 3.599838188798546 1.545448271909668 0 0 0
13686 3 28.057865770294274 3.5998396810197932 1.545441576616973 0 0 0
13687 3 31.17540639728327 3.5998399845344613 1.5454364487323873 0 0 0
13663 3 34.29294631494071 3.599839214667812 1.5454304339963651 0 0 0
13662 3 37.4104914463692 3.599833995203057 1.5454250251749826 0 0 0
14125 3 1.5587780088871697 6.299688214684632 1.5454363715646215 0 0 0
14126 3 4.676318719989423 6.299689382670951 1.5454405530836173 0 0 0
14127 3 7.79386184185329 6.299689682421713 1.545444560820337 0 0 0
14128 3 10.91140894221387 6.299686272372149 1.5454558899368562 0 0 0
14129 3 14.02895564474442 6.299654907898637 1.5454958611863918 0 0 0
14130 3 17.146464953568977 6.299658082834687 1.545501338712035 0 0 0
14131 3 20.26401047196688 6.299695285091708 1.5454696490072115 0 0 0
14132 3 23.381557658653218 6.299706012576232 1.5454620751191757 0 0 0
13639 3 26.499104391949757 6.299717617513401 1.5454611272599377 0 0 0
13640 3 29.616637803274564 6.299716286770987 1.545459168179955 0 0 0
13641 3 32.734169081484126 6.299719009783092 1.545453681317967 0 0 0
13642 3 35.851712788611685 6.29970919820477 1.545441867119187 0 0 0
7900 2 1.0773797259007294e-06 8.999564449981463 4.663242297842031 1 0 0
12336 2 38.96926937850263 6.299693647127373 4.6632437920145255 0 0 0
14133 3 3.117548169536428 8.999560325961944 1.5454347315775514 0 0 0
14109 3 6.235088594418569 8.999560604665692 1.5454378329698837 0 0 0
14121 3 9.352632639317054 8.999559042372786 1.5454421284414501 0 0 0
14108 3 12.470178709941994 8.999548179885489 1.5454543041984212 0 0 0
14093 3 15.587712497009468 8.999548588426865 1.5454677265781913 0 0 0
14082 3 18.705245123812826 8.999552492003952 1.5454685292337484 0 0 0
14083 3 21.822792590618125 8.999568669393572 1.5454674644474917 0 0 0
14084 3 24.940341306435677 8.9995785545785 1.5454752527421953 0 0 0
13648 3 28.05789378348739 8.999604742764005 1.5455037812717072 0 0 0
13649 3 31.175381841953218 8.999605225705908 1.545501957766472 0 0 0
13650 3 34.29293349683125 8.99958028169789 1.5454661673055998 0 0 0
13651 3 37.41048104457773 8.999574112317344 1.5454458009023944 0 0 0
14085 3 1.5587776046596187 11.699432512393294 1.5454289711821168 0 0 0
14086 3 4.676318317029166 11.699432149648517 1.5454326367491211 0 0 0
14087 3 7.793860431876837 11.699432071299801 1.5454350570545798 0 0 0
14088 3 10.911403393959402 11.699429593243604 1.5454408222501426 0 0 0
14089 3 14.02894427325826 11.69942810247364 1.5454517868400743 0 0 0
14090 3 17.14648228591465 11.699428698716218 1.5454607907487932 0 0 0
14091 3 20.264022682031836 11.699432609088438 1.545464492666843 0 0 0
14092 3 23.381573590085903 11.699437672498693 1.5454724144740573 0 0 0
13557 3 26.49913959955977 11.699443973778111 1.545506735906897 0 0 0
13558 3 29.61663836221291 11.699438227175278 1.545394180781267 0 0 0
13559 3 32.734136586012205 11.699444157073602 1.5455022026400873 0 0 0
13560 3 35.85170117537163 11.699438889506212 1.545459093015438 0 0 0
5019 1 5.455431192745604e-06 17.99913499121138 3.104329749854269 1 0 0
14094 3 3.117548134961788 14.39930457568685 1.5454279309002217 0 0 0
14106 3 6.235088901140469 14.399305311157745 1.5454308973641995 0 0 0
14095 3 9.3526312107038 14.399304908405265 1.5454350376081964 0 0 0
14096 3 12.470173021982788 14.399303926537435 1.54544307409814 0 0 0
14097 3 15.587712704434622 14.399303152849544 1.5454531821133362 0 0 0
14098 3 18.70525122517009 14.399303689944672 1.545459242296869 0 0 0
14099 3 21.822792403526226 14.399303559085315 1.5454639195417448 0 0 0
14100 3 24.9403375293001 14.399299787750115 1.5454710777026988 0 0 0
13566 3 28.057883224513287 14.399266018862287 1.545503299929422 0 0 0
13567 3 31.17539283034332 14.399265508073954 1.5455003703897896 0 0 0
13568 3 34.29293879267645 14.399298478842375 1.5454605684656835 0 0 0
13569 3 37.41048423622926 14.39930347582437 1.5454445129953733 0 0 0
14101 3 1.5587782787372522 17.099177987022504 1.5454248914192819 0 0 0
14102 3 4.6763191076038435 17.099178884989477 1.545429202387323 0 0 0
14103 3 7.793860208524563 17.09917862377907 1.5454335455692034 0 0 0
14104 3 10.911401799990742 17.099178337535065 1.545439834178045 0 0 0
14105 3 14.028942099137511 17.099177935103427 1.5454486097048925 0 0 0
14107 3 17.146480683964466 17.099176345308244 1.5454555554403289 0 0 0
14136 3 20.264018936206284 17.09917451629331 1.5454586861790964 0 0 0
14163 3 23.381560280494693 17.099171183844025 1.5454595406276654 0 0 0
13574 3 26.499104554837157 17.099158969345275 1.5454633399570699 0 0 0
13575 3 29.61663766432402 17.099156433662593 1.5454656086021845 0 0 0
13576 3 32.734170223768636 17.099157956424335 1.545455568881251 0 0 0
13552 3 35.85171551981279 17.099169219565656 1.5454420538167102 0 0 0
14137 3 3.1175495785442267 19.799053110210043 1.5454312955602547 0 0 0
14166 3 6.235090926902674 19.799053496792997 1.5454356492312336 0 0 0
14167 3 9.352630901463096 19.7990535977654 1.5454406603805293 0 0 0
14168 3 12.470170719258734 19.799053116781025 1.545447704288621 0 0 0
14169 3 15.58770947752935 19.799051223832166 1.545454072059715 0 0 0
14170 3 18.70524714244337 19.79904788971961 1.5454563480727692 0 0 0
14171 3 21.822786308110995 19.79904506987613 1.5454540136132628 0 0 0
14172 3 24.940328414523528 19.79903968347258 1.5454510799939765 0 0 0
13528 3 28.057868473155082 19.799036304216862 1.545449880288407 0 0 0
13529 3 31.17540678054981 19.79903640012437 1.5454463366255495 0 0 0
13530 3 34.29294572181602 19.79903901309921 1.5454380003244108 0 0 0
13531 3 37.41048940359049 19.799042804252203 1.54542967787923 0 0 0
14173 3 1.5587812825462872 22.498926271989436 1.5454368639147524 0 0 0
14174 3 4.676321289582057 22.49892796782509 1.5454416472030044 0 0 0
14175 3 7.7938616276195924 22.498929017815698 1.545446100296933 0 0 0
14176 3 10.911401195424594 22.49892861188794 1.5454513281988813 0 0 0
14178 3 14.028938215885407 22.49892612176693 1.5454569356978547 0 0 0
14190 3 17.146474510073084 22.49892390626576 1.5454579834267446 0 0 0
14179 3 20.264012898046808 22.498920532182172 1.545453807009812 0 0 0
13995 3 23.381554089286603 22.498916063636386 1.5454470775673255 0 0 0
13536 3 26.499096775450287 22.498913281396263 1.5454426297160064 0 0 0
13537 3 29.616638214401853 22.4989115346705 1.5454403122062617 0 0 0
13538 3 32.73417709634 22.498913326056588 1.5454357092509188 0 0 0
13539 3 35.851718168736916 22.498914517673505 1.5454296703950423 0 0 0
14289 3 1.3331201377610312e-05 25.1987965127675 1.5454424179207797 1 0 0
13994 3 3.11755417268434 25.198799961073018 1.54544956371096 0 0 0
13971 3 6.235093735510109 25.198802689101743 1.545455277716771 0 0 0
13972 3 9.352633379280823 25.19880463230976 1.5454613584539083 0 0 0
13973 3 12.470168696518025 25.198803582982478 1.5454657868090738 0 0 0
13974 3 15.587702681671411 25.198800627584674 1.5454659244069568 0 0 0
13975 3 18.705238060728263 25.198796921257735 1.5454597643397594 0 0 0
13976 3 21.822779565013988 25.19879129487662 1.5454493188547276 0 0 0
13977 3 24.94032223954319 25.198787390199737 1.5454405190749883 0 0 0
13545 3 28.057866651030217 25.198785631754888 1.5454367277998318 0 0 0
13546 3 31.175409203721102 25.198785193563396 1.5454348121349648 0 0 0
13547 3 34.2929494755704 25.198785717701202 1.5454316318889603 0 0 0
13548 3 37.41049169135048 25.198787966823552 1.5454268729010605 0 0 0
13978 3 1.5587879954617307 27.898668819773746 1.545455155262091 0 0 0
13979 3 4.676329821239581 27.89867508787933 1.545466069741903 0 0 0
13980 3 7.7938687893336756 27.89867991992997 1.545476581433464 0 0 0
13981 3 10.911406044874392 27.898687757646577 1.5454847397210583 0 0 0
13982 3 14.02893145634455 27.898682557454006 1.5454839666351567 0 0 0
13983 3 17.1464592883278 27.898680340560908 1.5454759626425199 0 0 0
13984 3 20.264002040868117 27.898667538342195 1.5454601184593215 0 0 0
13985 3 23.381547558423183 27.89866216927709 1.5454452051703915 0 0 0
13609 3 26.499092551098883 27.898659872679833 1.5454363429184745 0 0 0
13610 3 29.616637367920568 27.898657666358048 1.5454336623958103 0 0 0
13611 3 32.73417985567083 27.89865686403629 1.5454320073257526 0 0 0
13612 3 35.851722328000974 27.898657796267134 1.5454298382867155 0 0 0
11929 2 1.5587730822771622 0.8999567470564075 4.663266777166787 0 0 0
4454 1 3.1175443570664783 1.7999067368423347 3.104356499010856 0 0 0
11930 2 4.676315465465173 0.8999553713181773 4.663265609794189 0 0 0
4453 1 6.235086046796582 1.7999086156967175 3.104356928833825 0 0 0
11931 2 7.79385346529429 0.8999535751281914 4.6632669762522045 0 0 0
4451 1 9.352629009580978 1.7999112580105494 3.1043652984916417 0 0 0
4449 1 12.470167367627006 1.7999128302173175 3.104390958918839 0 0 0
11932 2 10.911387882708611 0.899950323263586 4.66328179048515 0 0 0
11857 2 14.028936568803601 0.8999469273897618 4.663293541860129 0 0 0
4448 1 15.58770484387145 1.8000057427249245 3.104424430565548 0 0 0
11856 2 17.146472813492434 0.8999480498037462 4.6632947727724146 0 0 0
4444 1 18.7052431345914 1.799916103945382 3.104393805196297 0 0 0
11855 2 20.264024765463994 0.8999525859526302 4.6632820239333235 0 0 0
4443 1 21.82278191433883 1.7999175982575417 3.1043651861205617 0 0 0
11854 2 23.381562026020692 0.8999565133157981 4.663260111085074 0 0 0
4441 1 24.9403256822541 1.7999180268646335 3.1043488224811684 0 0 0
4827 1 28.057867715277883 1.7999174293091968 3.104339664635036 0 0 0
12577 2 26.499101193307556 0.899956200009804 4.663247748898965 0 0 0
12374 2 29.61664168962986 0.8999555182737489 4.6632402732670455 0 0 0
4814 1 31.17541010768207 1.7999171876788718 3.104333911975283 0 0 0
12299 2 32.73418337409913 0.8999555744951279 4.663235161462949 0 0 0
4811 1 34.292952162421095 1.799916962044046 3.1043290466480222 0 0 0
12300 2 35.85172453337626 0.8999562831701474 4.663232245518416 0 0 0
4810 1 37.41049552828832 1.7999147893945981 3.1043266959031537 0 0 0
4440 1 1.5587746090994772 4.499777352502153 3.104346783926613 0 0 0
4439 1 4.676317009748619 4.499778673935614 3.1043505279662633 0 0 0
11781 2 3.1175441370518437 3.5998250288868094 4.663257599493739 0 0 0
11782 2 6.235086241211671 3.5998252958585235 4.6632602504607155 0 0 0
4438 1 7.793861241184839 4.499778918605262 3.1043546573838388 0 0 0
11783 2 9.352627413923244 3.5998273959440623 4.663269123095457 0 0 0
4461 1 10.911409232719617 4.499783217847222 3.104370678140918 0 0 0
11784 2 12.470160202506205 3.5998320513140456 4.663290365398105 0 0 0
4462 1 14.029016218290929 4.499735864465788 3.1044201518814423 0 0 0
4483 1 17.14639641978098 4.499737651998188 3.104424149219715 0 0 0
4482 1 20.264004841840087 4.499788154465803 3.1043795741150144 0 0 0
11785 2 18.705251906965543 3.599833577020434 4.663295492008863 0 0 0
11786 2 21.82278806685404 3.5998282030121564 4.663274657940172 0 0 0
4480 1 23.3815529452842 4.4997867559397084 3.1043624908736627 0 0 0
11787 2 24.940330151535235 3.5998266692566547 4.663261014236467 0 0 0
4830 1 26.49909816908558 4.499790823215203 3.104355353241981 0 0 0
12306 2 28.057870400441487 3.5998236738627747 4.663254454096858 0 0 0
4852 1 29.616638763818784 4.499789170391284 3.104351513731446 0 0 0
12307 2 31.17541181321658 3.5998227722881757 4.663249692191749 0 0 0
4850 1 32.73417849900033 4.499790545844034 3.1043456140205468 0 0 0
4849 1 35.85172225832841 4.4997863855150095 3.1043380882394263 0 0 0
12308 2 34.292953299252545 3.5998244152200627 4.663243218657393 0 0 0
12310 2 37.41049683007621 3.5998237430535354 4.663238124189489 0 0 0
11788 2 1.5587721878651277 6.299694852987847 4.6632494938249085 0 0 0
4476 1 3.1175459861629844 7.1996488734042465 3.104344046739625 0 0 0
11789 2 4.676315121252628 6.2996953599479815 4.663253991491487 0 0 0
4475 1 6.235087794271899 7.199649036374025 3.104347199787051 0 0 0
11791 2 7.793856033461042 6.299695153250093 4.663257628439953 0 0 0
4474 1 9.352630004131303 7.19964865907907 3.104352899375925 0 0 0
4471 1 12.470171240264639 7.199638826156548 3.104369658604657 0 0 0
11802 2 10.91139151756804 6.299697452488434 4.663271652234599 0 0 0
11792 2 14.028926843165443 6.299696897029166 4.663290059650982 0 0 0
4469 1 15.587707489255159 7.199649573206122 3.104391540754906 0 0 0
11793 2 17.14648370074552 6.2996977666748695 4.663295341674068 0 0 0
4467 1 18.70524425842381 7.199641975699572 3.1043815517549693 0 0 0
11794 2 20.26402112176018 6.299698525435628 4.663285461730685 0 0 0
4466 1 21.822786402229852 7.19965418535101 3.1043726704965158 0 0 0
11795 2 23.381558924049752 6.2996942692304545 4.663275104574288 0 0 0
4464 1 24.94032991255012 7.199657990241922 3.10437288405928 0 0 0
4837 1 28.05787673880847 7.199664807980188 3.104376369062245 0 0 0
12331 2 26.49910222629512 6.29969476499919 4.663273726694762 0 0 0
12332 2 29.616640206666375 6.299688606035395 4.663274789513598 0 0 0
4836 1 31.175401447717793 7.199664619912958 3.1043738183257785 0 0 0
12333 2 32.73418045237008 6.299692727658607 4.663266349822098 0 0 0
4833 1 34.292948242224035 7.199658217398961 3.1043614739296737 0 0 0
12334 2 35.851726586209665 6.299691037641825 4.6632549045564256 0 0 0
4832 1 37.41049196754906 7.199655577167592 3.1043463311336117 0 0 0
4463 1 1.5587753327428246 9.899520049580671 3.1043378856169186 0 0 0
4538 1 4.67631660091024 9.899520355602489 3.104341901564332 0 0 0
11796 2 3.1175441154002455 8.999564899729762 4.663248006259376 0 0 0
11797 2 6.235085914406102 8.999565015382391 4.663250900257709 0 0 0
4540 1 7.7938582206496205 9.899519958938809 3.1043440588171283 0 0 0
11798 2 9.352625318474477 8.99956561400516 4.663255131954654 0 0 0
4615 1 10.911400953116342 9.899517076083507 3.1043504168272302 0 0 0
11799 2 12.470163656250374 8.999562591860595 4.663266751823022 0 0 0
4613 1 14.028939154090649 9.899517567390893 3.104364088126462 0 0 0
11800 2 15.587704538635508 8.999572339451205 4.663283539110009 0 0 0
4611 1 17.14647778049712 9.8995184655038 3.1043725011721994 0 0 0
4610 1 20.264016947788907 9.899519569255256 3.1043722801730556 0 0 0
11801 2 18.705247307482896 8.999563816606496 4.663281267427477 0 0 0
11780 2 21.822787171439312 8.999566159753897 4.663280601660608 0 0 0
4609 1 23.38156177179545 9.89952464669951 3.1043786701908096 0 0 0
11790 2 24.940323773628506 8.999562011150573 4.663291323813711 0 0 0
4770 1 26.49910075142125 9.899526022229338 3.1043990512594015 0 0 0
12340 2 28.057872477400643 8.999557444157169 4.663297442086096 0 0 0
4769 1 29.61663909267973 9.89961789398084 3.104427830150822 0 0 0
12341 2 31.1754085347152 8.99955692712537 4.663295403037035 0 0 0
4767 1 32.734178211914475 9.899526461939285 3.104394752107007 0 0 0
4766 1 35.85171803163771 9.899526029391945 3.1043649924939807 0 0 0
12342 2 34.29296078371011 8.9995615330357 4.663281965287971 0 0 0
12343 2 37.41050010838179 8.999565128704663 4.663258811308505 0 0 0
11779 2 1.5587726854414996 11.699436205711208 4.663241955829165 0 0 0
4604 1 3.1175459085892174 12.599392163357518 3.104336483971242 0 0 0
11765 2 4.676314916700399 11.699436927628563 4.663245711056071 0 0 0
4603 1 6.235087522541726 12.599391886682001 3.104338865297969 0 0 0
11755 2 7.793855925544795 11.699435939896551 4.663248153503426 0 0 0
4601 1 9.352628949318145 12.59939091524861 3.1043425177917117 0 0 0
4599 1 12.470168745961928 12.599390576355441 3.1043507409862086 0 0 0
11756 2 10.911395236809037 11.699434425511898 4.66325385258793 0 0 0
11757 2 14.028932715901488 11.69943642202818 4.663265046785612 0 0 0
4597 1 15.587708837893226 12.59939060954578 3.1043619017676214 0 0 0
11758 2 17.146476737215306 11.699437260817117 4.6632738054915714 0 0 0
4595 1 18.70524972303839 12.59939153271289 3.1043679682485203 0 0 0
11759 2 20.26401834897517 11.699435311908555 4.663277273743164 0 0 0
4605 1 21.82279271110437 12.599391945271842 3.1043728982484353 0 0 0
11760 2 23.381561284799638 11.699438827782535 4.66328478784369 0 0 0
4619 1 24.94034129443957 12.599396374065998 3.1043851295793634 0 0 0
4753 1 28.057949587415376 12.599348184577435 3.1044283361049416 0 0 0
12272 2 26.49909586596949 11.699443514890282 4.663300682370157 0 0 0
4777 1 31.17532961629528 12.59934833008952 3.1044263815360416 0 0 0
12222 2 32.73418768510598 11.699445151176098 4.663295947234448 0 0 0
4800 1 34.292938788449554 12.599397034099718 3.104376444009311 0 0 0
12199 2 35.8517242412132 11.699440332097318 4.663271620602495 0 0 0
4799 1 37.41048761697656 12.599393381564875 3.104354296776251 0 0 0
12533 2 26.499098861582667 27.898660185433577 4.663249556715287 0 0 0
4620 1 1.5587754760189618 15.2992635977083 3.104331639868386 0 0 0
4643 1 4.676316875055615 15.299263854276003 3.1043354434113697 0 0 0
11761 2 3.1175442614619606 14.399308066888997 4.663241121127455 0 0 0
11762 2 6.235085880500064 14.399306847315383 4.663243992811148 0 0 0
4641 1 7.79385792994154 15.299263301623458 3.1043389152683734 0 0 0
11763 2 9.352624956480417 14.399305519354343 4.663248339541166 0 0 0
4638 1 10.911398116627366 15.299262889604408 3.1043450667985306 0 0 0
11764 2 12.4701630306609 14.399305296044535 4.66325644581274 0 0 0
4636 1 14.02893827185131 15.299262600393673 3.1043546426760473 0 0 0
11766 2 15.587704994456791 14.399306593410836 4.663266285695973 0 0 0
4634 1 17.14647883970469 15.29926295487023 3.1043627739974773 0 0 0
4633 1 20.2640193763684 15.2992626945927 3.1043672485688125 0 0 0
11777 2 18.705246932433493 14.399307222057736 4.663272751648517 0 0 0
11767 2 21.82278823329036 14.39930836473024 4.6632769213997545 0 0 0
4631 1 23.381561596426476 15.299261816325961 3.104371186920886 0 0 0
11768 2 24.94032689271042 14.399310737366157 4.663286803015087 0 0 0
4801 1 26.49910326569404 15.299251750562847 3.1043808312631724 0 0 0
12205 2 28.05786293943026 14.399310516546063 4.663297326025834 0 0 0
4788 1 29.61663971940589 15.299260858087585 3.1043932218619115 0 0 0
12206 2 31.175420181589605 14.399311402363924 4.663294244023151 0 0 0
4787 1 32.734176921536516 15.299251270988556 3.1043737573847245 0 0 0
4786 1 35.85171906600691 15.299261585037163 3.1043554973179734 0 0 0
12207 2 34.29295812879483 14.399312389701691 4.663276601183616 0 0 0
12208 2 37.41049699265332 14.399309792442573 4.663257627753547 0 0 0
11769 2 1.558773557696297 17.099177082128104 4.6632381338599 0 0 0
13561 3 38.96925367937486 11.699438396411729 1.5454403394680694 0 0 0
4626 1 3.117546488659643 17.99913531543945 3.104334363565851 0 0 0
11770 2 4.676314902800212 17.09917700459606 4.66324241793204 0 0 0
4625 1 6.235087569533031 17.999135671606957 3.104338775840868 0 0 0
11771 2 7.79385516585701 17.099176086455433 4.663246731229267 0 0 0
4623 1 9.352627817778714 17.999135646287623 3.1043437456775225 0 0 0
4622 1 12.470167794570886 17.999135639715796 3.1043514128870675 0 0 0
11772 2 10.911393824183675 17.099175742802643 4.663252927615361 0 0 0
11773 2 14.028933961950068 17.099176100460728 4.663261525134306 0 0 0
4594 1 15.58770821996585 17.99913530272683 3.1043593869086776 0 0 0
11774 2 17.146475957996607 17.099177436612827 4.663268820571999 0 0 0
4591 1 18.70524843462872 17.99913451515778 3.1043639695115677 0 0 0
11775 2 20.264018487984906 17.09917828841094 4.663271885063995 0 0 0
4563 1 21.822789282123914 17.99913362173098 3.104363889542511 0 0 0
11776 2 23.381559158207015 17.099179470888686 4.663272648519127 0 0 0
4561 1 24.94033183672712 17.999129424907256 3.1043635592608867 0 0 0
3669 1 28.057870429474004 17.999129196420707 3.104366110528358 0 0 0
12213 2 26.49910013465419 17.099177308207082 4.663275924929632 0 0 0
12214 2 29.616641561744387 17.099186774927503 4.663281484493664 0 0 0
3667 1 31.175408961928635 17.999129143108252 3.10436239963487 0 0 0
12215 2 32.734184440988834 17.09917747569202 4.6632679064013045 0 0 0
3665 1 34.29294823297672 17.999128783416744 3.104350417349621 0 0 0
12216 2 35.851726267444064 17.099180344757883 4.6632550968539315 0 0 0
3664 1 37.4104920022216 17.999132331827816 3.1043407239262315 0 0 0
4560 1 1.558776746300999 20.699007269736143 3.1043378091043436 0 0 0
7822 2 4.816887479461266e-06 25.198787193294255 4.663255497635567 1 0 0
4559 1 4.676317935337072 20.699008015736055 3.1043422684057793 0 0 0
11778 2 3.117545015322461 19.799046046826316 4.6632442387501705 0 0 0
11803 2 6.235085649531419 19.79904662373533 4.6632487935218006 0 0 0
4557 1 7.793858267483644 20.699008636349674 3.104346744796676 0 0 0
11804 2 9.352625366010614 19.799046848312877 4.663253724044843 0 0 0
4555 1 10.911397874206909 20.699008849731356 3.1043524355277747 0 0 0
11805 2 12.47016420616438 19.799047335730574 4.663260827945818 0 0 0
4564 1 14.028937495005184 20.699008183064475 3.1043594559656276 0 0 0
11831 2 15.587705497750122 19.799048247272115 4.663267248297155 0 0 0
4551 1 17.14647732353001 20.69900778608445 3.1043629354722113 0 0 0
4550 1 20.264017736726522 20.699006256468962 3.1043612934302818 0 0 0
11832 2 18.705247454563935 19.799049608888485 4.663269430149755 0 0 0
11833 2 21.82279021649356 19.79905053659146 4.66326709952726 0 0 0
4548 1 23.38155924913024 20.69900385265228 3.1043566795008695 0 0 0
11834 2 24.940330847277064 19.79904880334255 4.663264039221029 0 0 0
3655 1 26.499099281513153 20.699002447445167 3.104353616968697 0 0 0
12197 2 28.057869514039556 19.79905093828529 4.663263201287208 0 0 0
3653 1 29.61663939135249 20.699001329632534 3.104351722569309 0 0 0
12196 2 31.175413011446807 19.79905117153608 4.663259510508847 0 0 0
3651 1 32.73417988077883 20.699002025412582 3.1043458843973784 0 0 0
3650 1 35.851721333496805 20.699001624639106 3.1043381160481043 0 0 0
12195 2 34.29295416485353 19.799048370028746 4.663250807953752 0 0 0
12174 2 37.410496701731674 19.79904909653267 4.663242920720686 0 0 0
12125 2 1.558775029241459 22.49891677619666 4.663250107202139 0 0 0
4289 1 3.117548643190698 23.398879754973017 3.104349266714807 0 0 0
12126 2 4.676316704711776 22.498917141376715 4.663254700156483 0 0 0
4302 1 6.235089178218423 23.39888095531721 3.1043537250183584 0 0 0
12127 2 7.793856471873337 22.498917137086575 4.663259219539089 0 0 0
4304 1 9.352629201915269 23.398881541237667 3.104358819943685 0 0 0
4326 1 12.47016758329363 23.398881333102103 3.1043641829738204 0 0 0
12128 2 10.911395609095338 22.49891727698675 4.663264867785448 0 0 0
12129 2 14.028935437523309 22.49891867926025 4.663270187704854 0 0 0
4324 1 15.587706139272472 23.398880867455095 3.1043668923711287 0 0 0
12130 2 17.146477057706704 22.49892027724926 4.663271299428393 0 0 0
4321 1 18.70524572019548 23.39887953703652 3.1043637966519233 0 0 0
12132 2 20.2640195930106 22.498920720198402 4.663266893200452 0 0 0
4320 1 21.822786879409765 23.398877037819346 3.104356279790044 0 0 0
12143 2 23.38156007999047 22.498920315090675 4.663260312811295 0 0 0
4318 1 24.94032755283045 23.398874873942162 3.1043492321779347 0 0 0
3635 1 28.05786896378575 23.398873495951463 3.1043459951273586 0 0 0
12568 2 26.49909934524732 22.49892011695759 4.663255854862784 0 0 0
12569 2 29.616641184210447 22.498919249421377 4.663253482603091 0 0 0
3644 1 31.17541000345563 23.398873089582622 3.104343556403253 0 0 0
12570 2 32.73418306744558 22.49891837164804 4.6632493212439385 0 0 0
3631 1 34.29295076002871 23.398872671898 3.1043388363982496 0 0 0
12571 2 35.85172514807112 22.498917013866386 4.6632426704687004 0 0 0
3630 1 37.41049321225874 23.398873048807495 3.1043326053073548 0 0 0
4317 1 1.55877987471125 26.09875006296015 3.104356064141099 0 0 0
12200 2 38.969267569761584 11.699437143423163 4.663253373401051 0 0 0
4316 1 4.676321011517786 26.098752394936664 3.1043634137894793 0 0 0
12133 2 3.11754706534001 25.198787581435493 4.663262808110092 0 0 0
12134 2 6.23508755569144 25.198787120688586 4.663268788920464 0 0 0
4314 1 7.793860486821716 26.098753604275107 3.1043700390519566 0 0 0
12135 2 9.352627685361005 25.198787728013656 4.663274260847846 0 0 0
4312 1 10.911399846163906 26.098757048306396 3.104375745933826 0 0 0
12136 2 12.470166094334479 25.198787566972598 4.66327886809133 0 0 0
4310 1 14.028935771663404 26.098755211062297 3.1043779028726717 0 0 0
12137 2 15.587706642216624 25.198789672995566 4.66327900169785 0 0 0
4308 1 17.14647294428143 26.098754952601734 3.1043729569829686 0 0 0
4307 1 20.26401423428828 26.098749359583167 3.104362308400243 0 0 0
12138 2 18.7052481022218 25.19879135055492 4.663272684744404 0 0 0
12139 2 21.82279034241384 25.198790676213935 4.66326272436759 0 0 0
4305 1 23.38155552618015 26.09874711548077 3.1043507797351513 0 0 0
12140 2 24.94032929830398 25.19879009432773 4.663253746375193 0 0 0
3622 1 26.49909660467574 26.09874584976303 3.104343328560732 0 0 0
12564 2 28.05786866469521 25.198789941763607 4.66324959707748 0 0 0
3699 1 29.616639219374573 26.09874436714643 3.1043413245889675 0 0 0
12552 2 31.175411548128697 25.198788491032722 4.663248102030801 0 0 0
3700 1 32.734180875040025 26.09874417152722 3.1043397320877526 0 0 0
3774 1 35.85172231298445 26.098743820318266 3.104336234824697 0 0 0
12538 2 34.292953076039495 25.19878705798787 4.6632448460699125 0 0 0
12528 2 37.41049553914058 25.19878661029268 4.6632399358232695 0 0 0
12141 2 1.5587758144569073 27.89865909956834 4.66326844222973 0 0 0
12142 2 4.676317844143595 27.89865856473034 4.663279090514637 0 0 0
12535 2 32.7341812085922 27.898659297361014 4.6632452907284865 0 0 0
12067 2 7.793856976801594 27.89865582384487 4.663289503531225 0 0 0
12118 2 10.911400672232128 27.898658531745298 4.66329722506248 0 0 0
12066 2 14.028936743091636 27.89865617076599 4.663299531947026 0 0 0
12012 2 17.14647471408042 27.898661255291486 4.663288623024369 0 0 0
11990 2 20.26401955938079 27.898658909982107 4.663273171723751 0 0 0
12534 2 29.616639208221557 27.89865966919078 4.663246519799673 0 0 0
11991 2 23.381560283197235 27.89865949804221 4.663258497928392 0 0 0
13681 3 38.96926847722825 0.8999580313553148 1.5454201843157866 0 0 0
4784 1 38.969262441351944 15.299262940181794 3.1043432262452217 0 0 0
12572 2 38.969266988314665 22.498916626819053 4.6632367138817274 0 0 0
7803 2 3.3408606872954716e-06 19.799046209045265 4.663239318687795 1 0 0
12537 2 38.969265955794576 27.898655937301722 4.663241152588363 0 0 0
4775 1 38.96926280233228 9.899524321702083 3.1043455154652415 0 0 0
13551 3 38.969260394307376 17.09917337535897 1.5454327356338358 0 0 0
4656 1 2.442610120194058e-06 1.7999049283561936 3.104354590824736 1 0 0
3648 1 38.969264235141424 20.699002673704033 3.104331660568297 0 0 0
13643 3 38.96925875103401 6.299702935491415 1.5454309073538453 0 0 0
12301 2 38.96926653047423 0.8999571950632348 4.663233103834677 0 0 0
3772 1 38.969265198221755 26.09874421960425 3.1043321645485213 0 0 0
4847 1 38.969266136010646 4.499784267948239 3.104331912837407 0 0 0
12217 2 38.969266883757754 17.09918002580879 4.663245898337377 0 0 0
13540 3 38.96926264810175 22.498915961461048 1.5454237314936754 0 0 0
13613 3 38.9692665223286 27.898660306453166 1.5454279340220036 0 0 0
13716 3 6.430528742283171e-06 3.599813045283683 1.5454400433936082 1 0 0
7806 2 2.304384304071759e-06 14.399307255070838 4.663236665262204 1 0 0
13653 3 8.566385603907836e-06 19.799052174176577 1.5454262033370165 1 0 0
13726 3 7.0576647257282315e-06 14.399305161672588 1.5454235253076873 1 0 0
4703 1 4.104923770600789e-06 7.199648531328711 3.10433801530484 1 0 0
4888 1 7.232367043880695e-06 23.398877869329084 3.104343376448299 1 0 0
4977 1 4.4086843184130614e-06 12.599392036981943 3.1043316086938124 1 0 0
13743 3 7.5841500915974535e-06 8.999560877968072 1.5454292678849741 1 0 0
3758 1 37.41049487656702 28.798614819550586 3.1043355546401012 0 0 0
3759 1 34.29295190045959 28.79861474125356 3.1043370615726533 0 0 0
4942 1 1.0552111452000893e-05 28.79861984038968 3.104358079356968 1 0 0
13986 3 3.1175662085365037 30.598541900450492 1.545471743059284 0 0 0
13987 3 6.235112288456487 30.598556468052486 1.5454918758614866 0 0 0
13988 3 9.352644280518183 30.598559415501494 1.5455093750238402 0 0 0
13989 3 12.470179884467347 30.598583804426166 1.5455358464671611 0 0 0
13990 3 15.587668904837148 30.59857209379226 1.545523844419839 0 0 0
13991 3 18.70522063949156 30.59854319597265 1.5454813329948922 0 0 0
13992 3 21.822769464314156 30.59853579210113 1.5454570323663055 0 0 0
13993 3 24.94031741229007 30.59853170352594 1.5454412822519314 0 0 0
13618 3 28.057862949936634 30.59852974812892 1.545433444133112 0 0 0
13619 3 31.175407830501513 30.598527573887495 1.5454300862062762 0 0 0
13621 3 34.292951589204215 30.598526937345724 1.5454284484428193 0 0 0
13633 3 37.41049665784559 30.598528454857266 1.545428773812324 0 0 0