LAMMPS data file via write_data, version 2 Aug 2023, timestep = 500, units = metal

19040 atoms
3 atom types

0 623.507981692973 xlo xhi
0 86.39582826286613 ylo yhi
0 50 zlo zhi
0 0 0 xy xz yz

Masses

1 95.94
2 32.065
3 32.065

Atoms # atomic

1 3 1.5587691265102754 0.8999565199409033 1.545439885116358 0 0 0
2 3 4.676309034974679 0.8999565199401043 1.5454398851166264 0 0 0
3 3 7.793848943440027 0.8999565199401535 1.545439885116609 0 0 0
4 3 10.911388851904068 0.899956519940082 1.5454398851164892 0 0 0
5 3 14.028928760369212 0.8999565199404232 1.545439885116632 0 0 0
6 3 17.146468668834558 0.8999565199401841 1.545439885116553 0 0 0
7 3 20.26400857729901 0.8999565199402113 1.5454398851165163 0 0 0
8 3 23.381548485763787 0.8999565199402528 1.5454398851165814 0 0 0
385 3 26.49908839422878 0.899956519940293 1.5454398851165758 0 0 0
386 3 29.61662830269382 0.8999565199401556 1.5454398851165552 0 0 0
387 3 32.734168211158554 0.8999565199402729 1.5454398851165176 0 0 0
9 3 3.117539080742314 3.59982615315505 1.5454398851164914 0 0 0
10 3 6.235078989208067 3.599826153154782 1.5454398851167928 0 0 0
11 3 9.352618897672373 3.599826153154693 1.54543988511644 0 0 0
12 3 12.470158806136384 3.599826153154765 1.5454398851164781 0 0 0
13 3 15.587698714602013 3.5998261531549276 1.5454398851166409 0 0 0
14 3 18.70523862306696 3.5998261531547957 1.5454398851165125 0 0 0
15 3 21.822778531531323 3.5998261531548335 1.5454398851165054 0 0 0
16 3 24.940318439996258 3.5998261531548916 1.545439885116594 0 0 0
388 3 28.057858348461494 3.5998261531549036 1.5454398851165154 0 0 0
389 3 31.17539825692626 3.599826153154802 1.5454398851165423 0 0 0
390 3 34.29293816539099 3.599826153154814 1.5454398851165243 0 0 0
17 3 1.558769126510676 6.299695786367956 1.5454398851166269 0 0 0
18 3 4.676309034975117 6.299695786369665 1.5454398851164237 0 0 0
19 3 7.793848943439788 6.299695786369364 1.5454398851165714 0 0 0
20 3 10.911388851904041 6.29969578636931 1.545439885116426 0 0 0
21 3 14.028928760369201 6.299695786369412 1.5454398851166118 0 0 0
22 3 17.146468668834636 6.299695786369334 1.5454398851165474 0 0 0
23 3 20.26400857729907 6.299695786369346 1.5454398851164943 0 0 0
24 3 23.381548485763798 6.299695786369357 1.5454398851165505 0 0 0
391 3 26.49908839422888 6.299695786369412 1.5454398851165538 0 0 0
392 3 29.61662830269378 6.299695786369378 1.545439885116542 0 0 0
393 3 32.734168211158675 6.299695786369457 1.5454398851165545 0 0 0
25 3 3.117539080742865 8.999565419584357 1.5454398851165103 0 0 0
26 3 6.235078989207844 8.999565419583542 1.545439885116583 0 0 0
27 3 9.352618897672322 8.999565419583668 1.5454398851164053 0 0 0
28 3 12.470158806136524 8.999565419583885 1.545439885116632 0 0 0
29 3 15.587698714602134 8.99956541958386 1.5454398851165914 0 0 0
30 3 18.70523862306685 8.999565419583767 1.5454398851164808 0 0 0
31 3 21.822778531531277 8.999565419583737 1.545439885116607 0 0 0
32 3 24.94031843999642 8.999565419583853 1.545439885116572 0 0 0
394 3 28.057858348461355 8.999565419583808 1.5454398851165663 0 0 0
395 3 31.17539825692616 8.999565419583849 1.545439885116526 0 0 0
396 3 34.29293816539099 8.99956541958387 1.5454398851165596 0 0 0
33 3 1.5587691265098924 11.699435052798567 1.5454398851167088 0 0 0
34 3 4.676309034975066 11.699435052798595 1.5454398851165296 0 0 0
35 3 7.793848943439865 11.699435052797972 1.5454398851164974 0 0 0
36 3 10.911388851904082 11.699435052798561 1.5454398851166147 0 0 0
37 3 14.028928760369142 11.699435052798664 1.5454398851166264 0 0 0
38 3 17.146468668834554 11.699435052798425 1.5454398851164641 0 0 0
39 3 20.26400857729904 11.699435052798403 1.5454398851165632 0 0 0
40 3 23.381548485763798 11.6994350527985 1.5454398851166058 0 0 0
397 3 26.499088394228917 11.69943505279852 1.545439885116569 0 0 0
398 3 29.616628302693858 11.699435052798492 1.5454398851165259 0 0 0
399 3 32.734168211158575 11.699435052798451 1.5454398851166162 0 0 0
41 3 3.117539080741905 14.39930468601286 1.5454398851164504 0 0 0
42 3 6.235078989207721 14.399304686012956 1.545439885116617 0 0 0
43 3 9.352618897672873 14.399304686013009 1.5454398851165505 0 0 0
44 3 12.470158806136604 14.399304686013277 1.5454398851165552 0 0 0
45 3 15.587698714601816 14.39930468601314 1.545439885116518 0 0 0
46 3 18.705238623066872 14.399304686013032 1.5454398851164943 0 0 0
47 3 21.822778531531355 14.399304686013085 1.5454398851165965 0 0 0
48 3 24.940318439996396 14.399304686013169 1.5454398851165592 0 0 0
400 3 28.057858348461384 14.39930468601308 1.545439885116541 0 0 0
401 3 31.17539825692614 14.399304686013073 1.545439885116526 0 0 0
402 3 34.292938165391014 14.399304686013057 1.545439885116512 0 0 0
49 3 1.558769126510823 17.099174319227366 1.5454398851162272 0 0 0
50 3 4.676309034974593 17.099174319227526 1.5454398851165845 0 0 0
51 3 7.793848943440003 17.09917431922766 1.545439885116519 0 0 0
52 3 10.911388851904436 17.099174319227455 1.545439885116483 0 0 0
53 3 14.028928760368814 17.099174319227593 1.5454398851166042 0 0 0
54 3 17.146468668834466 17.09917431922752 1.545439885116502 0 0 0
55 3 20.26400857729911 17.09917431922751 1.5454398851165485 0 0 0
56 3 23.381548485763798 17.09917431922754 1.545439885116554 0 0 0
403 3 26.49908839422886 17.099174319227586 1.5454398851165267 0 0 0
404 3 29.616628302693858 17.09917431922752 1.545439885116577 0 0 0
405 3 32.73416821115863 17.099174319227565 1.5454398851165168 0 0 0
57 3 3.1175390807422545 19.79904395244215 1.5454398851165099 0 0 0
58 3 6.235078989207325 19.799043952442414 1.5454398851168076 0 0 0
59 3 9.35261889767262 19.799043952442002 1.5454398851163589 0 0 0
60 3 12.470158806136709 19.799043952441934 1.5454398851165694 0 0 0
61 3 15.587698714601773 19.7990439524422 1.5454398851166224 0 0 0
62 3 18.705238623066922 19.79904395244212 1.545439885116493 0 0 0
63 3 21.822778531531394 19.79904395244205 1.5454398851165727 0 0 0
64 3 24.940318439996396 19.799043952442148 1.545439885116601 0 0 0
406 3 28.057858348461316 19.79904395244214 1.5454398851165376 0 0 0
407 3 31.1753982569262 19.799043952442062 1.5454398851165547 0 0 0
408 3 34.29293816539096 19.799043952442165 1.5454398851165518 0 0 0
65 3 1.5587691265104766 22.498913585656695 1.5454398851161828 0 0 0
66 3 4.676309034974789 22.498913585656695 1.5454398851168458 0 0 0
67 3 7.793848943439959 22.49891358565674 1.5454398851165467 0 0 0
68 3 10.911388851904201 22.498913585656616 1.5454398851164641 0 0 0
69 3 14.028928760368974 22.498913585656837 1.5454398851167017 0 0 0
70 3 17.146468668834338 22.49891358565678 1.54543988511653 0 0 0
71 3 20.264008577299084 22.498913585656737 1.545439885116522 0 0 0
72 3 23.381548485763837 22.49891358565677 1.545439885116568 0 0 0
409 3 26.49908839422896 22.49891358565678 1.5454398851165927 0 0 0
410 3 29.61662830269378 22.49891358565672 1.5454398851165525 0 0 0
411 3 32.734168211158675 22.49891358565666 1.5454398851165634 0 0 0
73 3 3.117539080740772 25.19878321887124 1.5454398851166495 0 0 0
74 3 6.235078989207973 25.198783218871423 1.545439885116623 0 0 0
75 3 9.35261889767273 25.198783218871295 1.5454398851165505 0 0 0
76 3 12.470158806136668 25.198783218871355 1.5454398851164832 0 0 0
77 3 15.587698714601885 25.198783218871355 1.5454398851166038 0 0 0
78 3 18.70523862306678 25.198783218871366 1.545439885116494 0 0 0
79 3 21.822778531531476 25.198783218871355 1.5454398851165525 0 0 0
80 3 24.940318439996382 25.198783218871355 1.545439885116544 0 0 0
412 3 28.057858348461345 25.19878321887142 1.5454398851165208 0 0 0
413 3 31.175398256926183 25.198783218871355 1.5454398851165259 0 0 0
414 3 34.29293816539094 25.198783218871423 1.5454398851165574 0 0 0
81 3 1.5587691265098091 27.898652852085153 1.5454398851166258 0 0 0
82 3 4.676309034974399 27.898652852086368 1.5454398851167233 0 0 0
83 3 7.793848943440271 27.898652852085807 1.5454398851165205 0 0 0
84 3 10.911388851904281 27.898652852085746 1.5454398851165678 0 0 0
85 3 14.028928760368983 27.89865285208597 1.5454398851165292 0 0 0
86 3 17.146468668834395 27.89865285208584 1.5454398851165854 0 0 0
87 3 20.264008577299123 27.89865285208589 1.5454398851165434 0 0 0
88 3 23.381548485763926 27.898652852085874 1.545439885116573 0 0 0
415 3 26.49908839422892 27.898652852085874 1.5454398851165354 0 0 0
416 3 29.61662830269378 27.89865285208586 1.5454398851165585 0 0 0
417 3 32.734168211158554 27.89865285208595 1.5454398851165676 0 0 0
257 3 3.117539080742382 30.59852248530042 1.545439885116737 0 0 0
258 3 6.235078989208549 30.59852248530106 1.5454398851167743 0 0 0
259 3 9.352618897672537 30.59852248530013 1.545439885116352 0 0 0
260 3 12.470158806136396 30.598522485300347 1.5454398851165474 0 0 0
261 3 15.587698714601894 30.598522485300446 1.5454398851165607 0 0 0
262 3 18.70523862306688 30.598522485300474 1.5454398851164985 0 0 0
263 3 21.822778531531313 30.598522485300407 1.5454398851165787 0 0 0
264 3 24.940318439996418 30.59852248530039 1.5454398851165607 0 0 0
481 3 28.057858348461437 30.598522485300418 1.5454398851165387 0 0 0
482 3 31.175398256926243 30.59852248530036 1.5454398851165072 0 0 0
483 3 34.292938165390915 30.598522485300403 1.5454398851164888 0 0 0
265 3 1.558769126509809 33.29839211851531 1.5454398851166433 0 0 0
266 3 4.676309034974726 33.29839211851531 1.5454398851166422 0 0 0
267 3 7.793848943439397 33.29839211851522 1.5454398851165603 0 0 0
268 3 10.911388851903974 33.298392118514876 1.5454398851165072 0 0 0
269 3 14.02892876036944 33.29839211851505 1.545439885116652 0 0 0
270 3 17.146468668834547 33.298392118515025 1.5454398851165103 0 0 0
271 3 20.264008577298956 33.29839211851508 1.545439885116519 0 0 0
272 3 23.38154848576378 33.298392118515025 1.5454398851165831 0 0 0
484 3 26.499088394228863 33.29839211851512 1.545439885116561 0 0 0
485 3 29.61662830269388 33.298392118515025 1.545439885116578 0 0 0
486 3 32.734168211158654 33.29839211851513 1.5454398851165596 0 0 0
273 3 3.1175390807421772 35.998261751729636 1.5454398851164668 0 0 0
274 3 6.235078989208898 35.998261751729416 1.5454398851165585 0 0 0
275 3 9.352618897672238 35.99826175172949 1.5454398851165865 0 0 0
276 3 12.470158806136833 35.99826175172962 1.545439885116432 0 0 0
277 3 15.587698714601823 35.99826175172961 1.5454398851166093 0 0 0
278 3 18.70523862306669 35.99826175172949 1.5454398851164934 0 0 0
279 3 21.822778531531483 35.99826175172954 1.5454398851165552 0 0 0
280 3 24.940318439996418 35.998261751729636 1.5454398851165783 0 0 0
487 3 28.057858348461394 35.998261751729586 1.5454398851165343 0 0 0
488 3 31.175398256926147 35.99826175172969 1.545439885116514 0 0 0
489 3 34.292938165391 35.998261751729636 1.5454398851165752 0 0 0
281 3 1.558769126509842 38.69813138494337 1.5454398851165496 0 0 0
282 3 4.676309034974612 38.69813138494457 1.5454398851164541 0 0 0
283 3 7.793848943439362 38.69813138494405 1.5454398851166418 0 0 0
284 3 10.911388851903894 38.69813138494435 1.5454398851164712 0 0 0
285 3 14.02892876036933 38.69813138494426 1.5454398851166418 0 0 0
286 3 17.146468668834366 38.69813138494405 1.5454398851165279 0 0 0
287 3 20.264008577299062 38.69813138494414 1.5454398851165738 0 0 0
288 3 23.381548485763958 38.69813138494411 1.5454398851166218 0 0 0
490 3 26.499088394228966 38.6981313849442 1.5454398851165674 0 0 0
491 3 29.61662830269382 38.69813138494411 1.5454398851165851 0 0 0
492 3 32.73416821115856 38.69813138494417 1.5454398851165083 0 0 0
289 3 3.117539080741882 41.39800101815898 1.5454398851167834 0 0 0
290 3 6.235078989208232 41.39800101815879 1.5454398851165696 0 0 0
291 3 9.35261889767228 41.398001018158624 1.5454398851164046 0 0 0
292 3 12.470158806136682 41.39800101815876 1.5454398851165987 0 0 0
293 3 15.587698714602048 41.398001018158716 1.5454398851165911 0 0 0
294 3 18.705238623066712 41.39800101815883 1.5454398851164721 0 0 0
295 3 21.822778531531416 41.398001018158716 1.5454398851166031 0 0 0
296 3 24.940318439996478 41.3980010181587 1.5454398851165414 0 0 0
493 3 28.057858348461306 41.398001018158624 1.5454398851165245 0 0 0
494 3 31.175398256926226 41.39800101815873 1.545439885116556 0 0 0
495 3 34.292938165391 41.398001018158716 1.5454398851165259 0 0 0
89 2 1.5587691265100991 0.8999565199409826 4.663253448216739 0 0 0
90 2 4.676309034974736 0.8999565199401578 4.6632534482167385 0 0 0
91 1 3.117539080742951 1.7999132205115564 3.1043466666666633 0 0 0
92 1 6.235078989207546 1.799913220510936 3.104346666666609 0 0 0
93 2 7.793848943439963 0.8999565199402314 4.663253448216874 0 0 0
94 1 9.352618897672087 1.7999132205113435 3.1043466666666952 0 0 0
95 2 10.911388851904102 0.8999565199400665 4.663253448216788 0 0 0
96 1 12.470158806136405 1.799913220511188 3.1043466666666144 0 0 0
97 2 14.028928760369153 0.8999565199404257 4.6632534482166745 0 0 0
98 1 15.587698714602073 1.799913220511245 3.104346666666713 0 0 0
99 2 17.146468668834583 0.8999565199401315 4.66325344821683 0 0 0
100 2 20.26400857729907 0.8999565199402824 4.663253448216829 0 0 0
101 1 18.70523862306688 1.7999132205113637 3.1043466666666872 0 0 0
102 1 21.822778531531394 1.7999132205112514 3.1043466666666606 0 0 0
103 2 23.381548485763687 0.8999565199401477 4.663253448216745 0 0 0
104 1 24.940318439996286 1.7999132205112693 3.104346666666728 0 0 0
418 2 26.499088394228867 0.8999565199402236 4.663253448216747 0 0 0
419 1 28.057858348461437 1.799913220511266 3.104346666666629 0 0 0
420 2 29.61662830269376 0.8999565199402203 4.66325344821683 0 0 0
421 1 31.175398256926183 1.7999132205112918 3.1043466666667068 0 0 0
422 2 32.73416821115863 0.8999565199402659 4.663253448216774 0 0 0
423 1 34.29293816539102 1.7999132205111505 3.1043466666666264 0 0 0
105 1 1.5587691265096149 4.499782853725118 3.1043466666668706 0 0 0
106 1 4.676309034975088 4.499782853726096 3.104346666666646 0 0 0
107 2 3.1175390807424037 3.5998261531548934 4.663253448217034 0 0 0
108 1 7.793848943440395 4.499782853725881 3.1043466666667427 0 0 0
109 2 6.235078989207999 3.599826153154802 4.6632534482166035 0 0 0
110 2 9.352618897672535 3.5998261531547033 4.663253448216917 0 0 0
111 1 10.911388851904267 4.499782853725912 3.1043466666666513 0 0 0
112 2 12.470158806136356 3.599826153154746 4.663253448216737 0 0 0
113 1 14.028928760369082 4.499782853725662 3.104346666666633 0 0 0
114 2 15.587698714601999 3.5998261531549614 4.663253448216776 0 0 0
115 1 17.146468668834554 4.499782853725862 3.104346666666712 0 0 0
116 1 20.264008577299084 4.499782853725893 3.104346666666647 0 0 0
117 2 18.70523862306703 3.599826153154801 4.663253448216854 0 0 0
118 1 23.3815484857637 4.499782853725839 3.1043466666666593 0 0 0
119 2 21.822778531531334 3.5998261531548335 4.66325344821679 0 0 0
120 2 24.940318439996258 3.5998261531549716 4.663253448216775 0 0 0
424 1 26.499088394228867 4.499782853725799 3.1043466666666633 0 0 0
425 2 28.057858348461476 3.5998261531548637 4.663253448216788 0 0 0
426 1 29.6166283026939 4.499782853725912 3.104346666666665 0 0 0
427 2 31.17539825692626 3.5998261531548637 4.663253448216825 0 0 0
428 1 32.734168211158654 4.499782853725806 3.1043466666666553 0 0 0
429 2 34.29293816539097 3.5998261531547477 4.663253448216772 0 0 0
121 2 1.5587691265106018 6.2996957863685665 4.663253448216799 0 0 0
122 2 4.6763090349748975 6.299695786369676 4.663253448216841 0 0 0
123 1 3.1175390807427967 7.1996524869405745 3.104346666666624 0 0 0
124 1 6.235078989207429 7.199652486940196 3.1043466666666166 0 0 0
125 2 7.79384894343978 6.29969578636941 4.663253448216813 0 0 0
126 1 9.352618897672048 7.1996524869404155 3.1043466666667525 0 0 0
127 2 10.911388851904082 6.299695786369261 4.663253448216815 0 0 0
128 1 12.470158806136514 7.199652486940224 3.104346666666622 0 0 0
129 2 14.028928760369181 6.299695786369418 4.663253448216735 0 0 0
130 1 15.587698714602023 7.199652486940248 3.1043466666666473 0 0 0
131 2 17.146468668834643 6.299695786369371 4.663253448216823 0 0 0
132 2 20.26400857729903 6.2996957863692815 4.663253448216841 0 0 0
133 1 18.70523862306692 7.19965248694034 3.1043466666666903 0 0 0
134 1 21.822778531531423 7.199652486940296 3.104346666666694 0 0 0
135 2 23.38154848576382 6.299695786369327 4.663253448216797 0 0 0
136 1 24.940318439996343 7.1996524869402405 3.1043466666666757 0 0 0
430 2 26.49908839422888 6.299695786369377 4.663253448216793 0 0 0
431 1 28.057858348461316 7.19965248694034 3.1043466666666917 0 0 0
432 2 29.61662830269384 6.299695786369378 4.663253448216825 0 0 0
433 1 31.175398256926165 7.199652486940352 3.1043466666666633 0 0 0
434 2 32.73416821115866 6.299695786369464 4.663253448216766 0 0 0
435 1 34.29293816539106 7.199652486940348 3.104346666666699 0 0 0
137 1 1.558769126509803 9.899522120154796 3.1043466666667134 0 0 0
138 1 4.676309034975128 9.899522120155043 3.1043466666666575 0 0 0
139 2 3.1175390807427092 8.999565419584131 4.663253448216945 0 0 0
140 1 7.793848943440098 9.899522120154481 3.104346666666652 0 0 0
141 2 6.235078989207839 8.999565419583613 4.663253448216726 0 0 0
142 2 9.352618897672281 8.999565419583664 4.663253448216909 0 0 0
143 1 10.911388851904238 9.899522120155021 3.104346666666703 0 0 0
144 2 12.470158806136563 8.999565419583849 4.663253448216764 0 0 0
145 1 14.028928760369292 9.89952212015485 3.1043466666666477 0 0 0
146 2 15.587698714602173 8.999565419583892 4.663253448216739 0 0 0
147 1 17.146468668834586 9.899522120154884 3.104346666666686 0 0 0
148 1 20.264008577298977 9.899522120154947 3.104346666666676 0 0 0
149 2 18.705238623066844 8.999565419583764 4.663253448216836 0 0 0
150 1 23.38154848576376 9.89952212015484 3.1043466666666752 0 0 0
151 2 21.822778531531316 8.999565419583789 4.663253448216802 0 0 0
152 2 24.940318439996382 8.999565419583808 4.663253448216761 0 0 0
436 1 26.499088394228867 9.89952212015491 3.1043466666666824 0 0 0
437 2 28.057858348461345 8.999565419583844 4.663253448216798 0 0 0
438 1 29.61662830269376 9.899522120154868 3.104346666666661 0 0 0
439 2 31.175398256926087 8.999565419583798 4.663253448216815 0 0 0
440 1 32.734168211158554 9.89952212015495 3.1043466666667126 0 0 0
441 2 34.292938165391014 8.999565419583869 4.663253448216848 0 0 0
153 2 1.5587691265094374 11.69943505279861 4.66325344821665 0 0 0
154 2 4.676309034975041 11.699435052798547 4.6632534482167705 0 0 0
155 1 3.1175390807425174 12.599391753369249 3.1043466666665736 0 0 0
156 1 6.2350789892076515 12.599391753369277 3.104346666666645 0 0 0
157 2 7.793848943439739 11.699435052797986 4.663253448216764 0 0 0
158 1 9.352618897671942 12.599391753369508 3.1043466666666966 0 0 0
159 2 10.911388851904139 11.699435052798568 4.663253448216837 0 0 0
160 1 12.470158806136535 12.599391753369728 3.104346666666636 0 0 0
161 2 14.028928760369212 11.699435052798691 4.663253448216683 0 0 0
162 1 15.587698714601983 12.599391753369455 3.1043466666666393 0 0 0
163 2 17.146468668834544 11.69943505279845 4.663253448216752 0 0 0
164 2 20.26400857729897 11.699435052798451 4.663253448216809 0 0 0
165 1 18.70523862306684 12.599391753369556 3.104346666666665 0 0 0
166 1 21.822778531531412 12.599391753369515 3.1043466666666744 0 0 0
167 2 23.38154848576382 11.699435052798497 4.663253448216766 0 0 0
168 1 24.940318439996403 12.599391753369535 3.1043466666666633 0 0 0
442 2 26.49908839422892 11.69943505279852 4.663253448216755 0 0 0
443 1 28.057858348461455 12.599391753369467 3.104346666666652 0 0 0
444 2 29.61662830269382 11.699435052798478 4.663253448216765 0 0 0
445 1 31.175398256926204 12.599391753369563 3.104346666666675 0 0 0
446 2 32.73416821115863 11.69943505279848 4.663253448216771 0 0 0
447 1 34.29293816539109 12.599391753369462 3.1043466666666513 0 0 0
169 1 1.5587691265101067 15.299261386584405 3.1043466666666784 0 0 0
170 1 4.676309034974651 15.299261386583765 3.1043466666666633 0 0 0
171 2 3.1175390807420262 14.399304686012819 4.663253448216711 0 0 0
172 1 7.793848943440385 15.29926138658398 3.1043466666666917 0 0 0
173 2 6.235078989207799 14.3993046860129 4.663253448216636 0 0 0
174 2 9.352618897672775 14.399304686012984 4.663253448216914 0 0 0
175 1 10.911388851904654 15.299261386584293 3.1043466666667574 0 0 0
176 2 12.470158806136723 14.399304686013272 4.663253448216886 0 0 0
177 1 14.028928760369162 15.299261386583987 3.1043466666666393 0 0 0
178 2 15.587698714601842 14.399304686013114 4.663253448216682 0 0 0
179 1 17.146468668834395 15.299261386583957 3.1043466666666357 0 0 0
180 1 20.264008577299055 15.29926138658404 3.104346666666692 0 0 0
181 2 18.705238623066762 14.399304686013004 4.66325344821683 0 0 0
182 1 23.381548485763815 15.299261386584012 3.1043466666666744 0 0 0
183 2 21.822778531531394 14.39930468601308 4.663253448216818 0 0 0
184 2 24.94031843999638 14.399304686013183 4.663253448216762 0 0 0
448 1 26.49908839422886 15.29926138658404 3.104346666666672 0 0 0
449 2 28.057858348461377 14.399304686013032 4.663253448216795 0 0 0
450 1 29.61662830269376 15.299261386584021 3.1043466666666935 0 0 0
451 2 31.175398256926222 14.399304686013092 4.663253448216828 0 0 0
452 1 32.734168211158554 15.299261386583966 3.104346666666638 0 0 0
453 2 34.292938165390936 14.39930468601301 4.663253448216809 0 0 0
185 2 1.5587691265105517 17.0991743192271 4.663253448216683 0 0 0
186 2 4.67630903497456 17.09917431922762 4.663253448216787 0 0 0
187 1 3.1175390807424095 17.999131019798817 3.1043466666666646 0 0 0
188 1 6.235078989207278 17.999131019798444 3.104346666666712 0 0 0
189 2 7.793848943440112 17.09917431922762 4.663253448216702 0 0 0
190 1 9.352618897672343 17.999131019798632 3.1043466666666504 0 0 0
191 2 10.911388851904297 17.09917431922758 4.663253448216993 0 0 0
192 1 12.470158806136515 17.999131019798536 3.104346666666737 0 0 0
193 2 14.028928760368974 17.09917431922755 4.663253448216786 0 0 0
194 1 15.587698714601693 17.999131019798362 3.104346666666627 0 0 0
195 2 17.146468668834416 17.099174319227505 4.663253448216723 0 0 0
196 2 20.26400857729907 17.09917431922751 4.663253448216868 0 0 0
197 1 18.705238623066855 17.99913101979859 3.1043466666666664 0 0 0
198 1 21.822778531531473 17.9991310197985 3.1043466666667032 0 0 0
199 2 23.381548485763826 17.09917431922754 4.66325344821681 0 0 0
200 1 24.940318439996325 17.99913101979848 3.1043466666666846 0 0 0
454 2 26.499088394228867 17.09917431922755 4.663253448216771 0 0 0
455 1 28.057858348461416 17.999131019798515 3.104346666666649 0 0 0
456 2 29.61662830269384 17.099174319227586 4.663253448216797 0 0 0
457 1 31.175398256926243 17.999131019798554 3.10434666666668 0 0 0
458 2 32.73416821115869 17.09917431922755 4.663253448216786 0 0 0
459 1 34.29293816539099 17.999131019798597 3.104346666666665 0 0 0
201 1 1.5587691265093395 20.6990006530128 3.1043466666661894 0 0 0
202 1 4.6763090349745795 20.699000653013236 3.104346666666981 0 0 0
203 2 3.1175390807418792 19.799043952442084 4.663253448216754 0 0 0
204 1 7.793848943440251 20.69900065301317 3.1043466666666273 0 0 0
205 2 6.23507898920788 19.799043952442283 4.663253448216892 0 0 0
206 2 9.352618897672661 19.79904395244207 4.663253448216755 0 0 0
207 1 10.911388851904535 20.699000653013183 3.1043466666665758 0 0 0
208 2 12.47015880613651 19.799043952442037 4.663253448216882 0 0 0
209 1 14.028928760369103 20.699000653013115 3.1043466666667534 0 0 0
210 2 15.587698714601904 19.79904395244212 4.6632534482167065 0 0 0
211 1 17.146468668834427 20.699000653013147 3.104346666666625 0 0 0
212 1 20.264008577299116 20.69900065301321 3.1043466666666637 0 0 0
213 2 18.705238623066844 19.799043952442148 4.663253448216782 0 0 0
214 1 23.381548485763837 20.69900065301308 3.1043466666666593 0 0 0
215 2 21.822778531531434 19.799043952442084 4.663253448216813 0 0 0
216 2 24.940318439996418 19.799043952442098 4.6632534482167465 0 0 0
460 1 26.499088394228856 20.699000653013123 3.10434666666669 0 0 0
461 2 28.057858348461394 19.799043952442126 4.663253448216773 0 0 0
462 1 29.61662830269378 20.699000653013155 3.1043466666666726 0 0 0
463 2 31.175398256926165 19.799043952442037 4.663253448216816 0 0 0
464 1 32.734168211158575 20.699000653013155 3.1043466666667117 0 0 0
465 2 34.292938165391035 19.7990439524422 4.66325344821678 0 0 0
217 2 1.5587691265104964 22.498913585656684 4.66325344821689 0 0 0
218 2 4.676309034974729 22.498913585657064 4.663253448216885 0 0 0
219 1 3.117539080742704 23.39887028622745 3.104346666666604 0 0 0
220 1 6.235078989207576 23.398870286227726 3.104346666666774 0 0 0
221 2 7.793848943439947 22.498913585656737 4.6632534482168095 0 0 0
222 1 9.352618897672174 23.398870286227833 3.104346666666695 0 0 0
223 2 10.911388851904151 22.49891358565655 4.6632534482167785 0 0 0
224 1 12.470158806136395 23.398870286227794 3.104346666666591 0 0 0
225 2 14.028928760368935 22.498913585656904 4.663253448216776 0 0 0
226 1 15.587698714601766 23.398870286227726 3.104346666666741 0 0 0
227 2 17.146468668834427 22.498913585656727 4.663253448216773 0 0 0
228 2 20.264008577299055 22.49891358565674 4.663253448216772 0 0 0
229 1 18.70523862306679 23.398870286227808 3.1043466666666455 0 0 0
230 1 21.822778531531473 23.39887028622777 3.104346666666648 0 0 0
231 2 23.381548485763876 22.49891358565674 4.66325344821678 0 0 0
232 1 24.940318439996403 23.398870286227794 3.104346666666667 0 0 0
466 2 26.49908839422886 22.4989135856568 4.663253448216783 0 0 0
467 1 28.057858348461377 23.398870286227794 3.104346666666684 0 0 0
468 2 29.6166283026938 22.498913585656755 4.663253448216732 0 0 0
469 1 31.175398256926222 23.39887028622774 3.104346666666639 0 0 0
470 2 32.73416821115863 22.49891358565674 4.663253448216824 0 0 0
471 1 34.29293816539102 23.398870286227847 3.1043466666666966 0 0 0
233 1 1.5587691265090577 26.098739919442092 3.1043466666669515 0 0 0
234 1 4.676309034974336 26.098739919442178 3.1043466666664576 0 0 0
235 2 3.1175390807417394 25.19878321887131 4.663253448216823 0 0 0
236 1 7.793848943440435 26.09873991944241 3.10434666666683 0 0 0
237 2 6.235078989207552 25.19878321887161 4.663253448216456 0 0 0
238 2 9.352618897672784 25.19878321887119 4.663253448216947 0 0 0
239 1 10.911388851904677 26.098739919442398 3.1043466666667117 0 0 0
240 2 12.470158806136737 25.198783218871366 4.663253448216807 0 0 0
241 1 14.028928760369173 26.098739919442302 3.1043466666665616 0 0 0
242 2 15.58769871460178 25.198783218871462 4.663253448216752 0 0 0
243 1 17.146468668834338 26.098739919442313 3.1043466666667334 0 0 0
244 1 20.264008577299055 26.098739919442384 3.104346666666641 0 0 0
245 2 18.70523862306684 25.19878321887131 4.663253448216838 0 0 0
246 1 23.38154848576382 26.098739919442284 3.104346666666689 0 0 0
247 2 21.822778531531434 25.198783218871366 4.663253448216781 0 0 0
248 2 24.940318439996403 25.198783218871405 4.6632534482168175 0 0 0
472 1 26.4990883942289 26.098739919442313 3.104346666666694 0 0 0
473 2 28.057858348461377 25.19878321887142 4.663253448216855 0 0 0
474 1 29.616628302693776 26.098739919442327 3.1043466666666677 0 0 0
475 2 31.175398256926165 25.198783218871323 4.6632534482167936 0 0 0
476 1 32.734168211158575 26.09873991944241 3.1043466666666686 0 0 0
477 2 34.29293816539094 25.19878321887145 4.663253448216816 0 0 0
249 2 1.5587691265092947 27.89865285208566 4.663253448217032 0 0 0
250 2 4.676309034974911 27.89865285208595 4.663253448216568 0 0 0
377 1 3.117539080742107 28.798609552656764 3.1043466666668995 0 0 0
253 2 7.793848943439964 27.898652852086023 4.6632534482168335 0 0 0
379 1 6.235078989207801 28.798609552657105 3.1043466666665553 0 0 0
382 1 9.352618897672324 28.798609552656846 3.104346666666796 0 0 0
255 2 10.911388851904299 27.89865285208571 4.663253448216948 0 0 0
383 1 12.470158806136514 28.798609552656792 3.1043466666666655 0 0 0
256 2 14.028928760369062 27.898652852085927 4.6632534482167225 0 0 0
384 1 15.587698714601785 28.798609552656735 3.1043466666666464 0 0 0
254 2 17.146468668834384 27.8986528520859 4.663253448216764 0 0 0
252 2 20.26400857729907 27.898652852085828 4.6632534482168255 0 0 0
381 1 18.70523862306683 28.79860955265694 3.1043466666666824 0 0 0
251 2 23.38154848576388 27.898652852085903 4.663253448216775 0 0 0
380 1 21.822778531531515 28.798609552656874 3.1043466666666815 0 0 0
378 1 24.940318439996382 28.798609552656803 3.104346666666689 0 0 0
478 2 26.499088394228856 27.898652852085856 4.6632534482167936 0 0 0
526 1 28.057858348461355 28.7986095526569 3.1043466666666704 0 0 0
479 2 29.616628302693723 27.89865285208586 4.663253448216796 0 0 0
527 1 31.175398256926126 28.798609552656846 3.104346666666665 0 0 0
480 2 32.73416821115861 27.898652852085934 4.66325344821678 0 0 0
528 1 34.29293816539096 28.79860955265683 3.104346666666675 0 0 0
305 1 1.5587691265092511 31.498479185871762 3.104346666666475 0 0 0
297 2 3.1175390807422327 30.598522485300855 4.663253448216832 0 0 0
307 1 4.676309034975298 31.49847918587164 3.104346666666829 0 0 0
298 2 6.2350789892086596 30.598522485300773 4.66325344821668 0 0 0
309 1 7.793848943440861 31.49847918587179 3.1043466666665966 0 0 0
299 2 9.352618897672457 30.59852248530028 4.663253448216961 0 0 0
300 2 12.470158806136386 30.598522485300293 4.663253448216803 0 0 0
311 1 10.911388851904308 31.49847918587145 3.104346666666643 0 0 0
301 2 15.587698714601924 30.598522485300432 4.663253448216696 0 0 0
313 1 14.028928760369093 31.498479185871293 3.104346666666695 0 0 0
315 1 17.146468668834377 31.498479185871517 3.1043466666666824 0 0 0
302 2 18.705238623066823 30.59852248530047 4.663253448216849 0 0 0
317 1 20.26400857729904 31.498479185871556 3.1043466666666584 0 0 0
303 2 21.822778531531334 30.598522485300418 4.663253448216872 0 0 0
319 1 23.38154848576384 31.498479185871474 3.104346666666679 0 0 0
304 2 24.940318439996418 30.598522485300393 4.6632534482167864 0 0 0
499 1 26.499088394228927 31.49847918587145 3.1043466666666584 0 0 0
496 2 28.057858348461377 30.598522485300407 4.66325344821679 0 0 0
497 2 31.175398256926226 30.598522485300347 4.663253448216814 0 0 0
501 1 29.61662830269392 31.498479185871474 3.1043466666666757 0 0 0
498 2 34.29293816539092 30.598522485300442 4.663253448216796 0 0 0
503 1 32.73416821115866 31.49847918587146 3.104346666666663 0 0 0
306 2 1.5587691265105847 33.298392118514585 4.663253448216861 0 0 0
308 2 4.67630903497448 33.2983921185156 4.6632534482167705 0 0 0