LAMMPS data file via write_data, version 2 Aug 2023, timestep = 193, units = metal

19040 atoms
3 atom types

0 623.5083508578357 xlo xhi
0 86.39582297920498 ylo yhi
0 50 zlo zhi
0 0 0 xy xz yz

Masses

1 95.94
2 32.065
3 32.065

Atoms # atomic

1 3 1.5587700494221142 0.8999565665544633 1.5454396197933653 0 0 0
2 3 4.676311803711047 0.8999565665544577 1.5454396197933573 0 0 0
3 3 7.793853558000237 0.8999565665544997 1.5454396197933615 0 0 0
4 3 10.911395312289473 0.8999565665545124 1.5454396197933624 0 0 0
5 3 14.028937066578678 0.8999565665544893 1.5454396197933657 0 0 0
6 3 17.146478820867863 0.8999565665544976 1.5454396197933578 0 0 0
7 3 20.26402057515702 0.8999565665544897 1.5454396197933649 0 0 0
8 3 23.38156232944622 0.8999565665545004 1.54543961979336 0 0 0
257 3 26.49910408373537 0.8999565665545032 1.54543961979335 0 0 0
258 3 29.616645838024553 0.8999565665544796 1.5454396197933706 0 0 0
259 3 32.734187592313724 0.899956566554486 1.5454396197933702 0 0 0
260 3 35.85172934660293 0.8999565665545013 1.5454396197933538 0 0 0
261 3 38.9692711008921 0.8999565665545027 1.5454396197933584 0 0 0
9 3 3.1175409265665324 3.599826034654615 1.5454396197933766 0 0 0
10 3 6.235082680855626 3.599826034654641 1.5454396197933529 0 0 0
11 3 9.352624435144856 3.599826034654653 1.545439619793364 0 0 0
12 3 12.470166189434073 3.5998260346546442 1.545439619793365 0 0 0
13 3 15.587707943723268 3.5998260346546394 1.5454396197933653 0 0 0
14 3 18.705249698012445 3.5998260346546376 1.54543961979336 0 0 0
15 3 21.822791452301608 3.599826034654639 1.5454396197933642 0 0 0
16 3 24.94033320659079 3.5998260346546394 1.5454396197933657 0 0 0
262 3 28.05787496087997 3.599826034654634 1.545439619793364 0 0 0
263 3 31.17541671516913 3.5998260346546376 1.5454396197933666 0 0 0
264 3 34.29295846945833 3.5998260346546496 1.5454396197933633 0 0 0
265 3 37.41050022374751 3.599826034654643 1.545439619793361 0 0 0
17 3 1.5587700494221046 6.299695502754789 1.545439619793361 0 0 0
18 3 4.676311803711048 6.299695502754777 1.5454396197933529 0 0 0
19 3 7.793853558000234 6.299695502754808 1.545439619793361 0 0 0
20 3 10.911395312289468 6.299695502754805 1.545439619793366 0 0 0
21 3 14.028937066578669 6.2996955027547985 1.5454396197933673 0 0 0
22 3 17.146478820867863 6.299695502754798 1.5454396197933633 0 0 0
23 3 20.26402057515702 6.299695502754795 1.545439619793364 0 0 0
24 3 23.381562329446197 6.299695502754795 1.545439619793365 0 0 0
266 3 26.49910408373537 6.299695502754795 1.5454396197933666 0 0 0
267 3 29.616645838024553 6.299695502754795 1.5454396197933655 0 0 0
268 3 32.73418759231374 6.299695502754801 1.5454396197933695 0 0 0
269 3 35.85172934660293 6.299695502754795 1.5454396197933604 0 0 0
270 3 38.9692711008921 6.2996955027547985 1.545439619793366 0 0 0
25 3 3.1175409265665213 8.99956497085491 1.5454396197933606 0 0 0
26 3 6.235082680855632 8.999564970854944 1.545439619793353 0 0 0
27 3 9.352624435144856 8.999564970854951 1.5454396197933642 0 0 0
28 3 12.470166189434073 8.999564970854948 1.545439619793365 0 0 0
29 3 15.587707943723268 8.999564970854944 1.5454396197933624 0 0 0
30 3 18.705249698012445 8.999564970854948 1.5454396197933646 0 0 0
31 3 21.82279145230162 8.999564970854948 1.5454396197933666 0 0 0
32 3 24.94033320659079 8.999564970854944 1.545439619793363 0 0 0
271 3 28.05787496087997 8.999564970854944 1.5454396197933669 0 0 0
272 3 31.175416715169153 8.999564970854944 1.545439619793364 0 0 0
273 3 34.29295846945833 8.999564970854957 1.5454396197933666 0 0 0
274 3 37.410500223747505 8.999564970854944 1.5454396197933606 0 0 0
33 3 1.5587700494221022 11.699434438955075 1.5454396197933584 0 0 0
34 3 4.67631180371105 11.699434438955075 1.5454396197933529 0 0 0
35 3 7.793853558000234 11.699434438955109 1.545439619793359 0 0 0
36 3 10.911395312289473 11.699434438955102 1.5454396197933657 0 0 0
37 3 14.028937066578669 11.699434438955102 1.5454396197933655 0 0 0
38 3 17.146478820867863 11.699434438955102 1.545439619793361 0 0 0
39 3 20.264020575157026 11.699434438955102 1.545439619793363 0 0 0
40 3 23.381562329446197 11.699434438955102 1.545439619793364 0 0 0
275 3 26.49910408373537 11.699434438955095 1.5454396197933649 0 0 0
276 3 29.616645838024553 11.699434438955095 1.545439619793366 0 0 0
277 3 32.73418759231374 11.699434438955102 1.5454396197933682 0 0 0
278 3 35.85172934660293 11.699434438955091 1.5454396197933584 0 0 0
279 3 38.9692711008921 11.699434438955109 1.5454396197933604 0 0 0
41 3 3.1175409265665426 14.399303907055224 1.545439619793379 0 0 0
42 3 6.235082680855632 14.399303907055245 1.5454396197933555 0 0 0
43 3 9.352624435144856 14.399303907055252 1.545439619793364 0 0 0
44 3 12.470166189434073 14.399303907055245 1.5454396197933669 0 0 0
45 3 15.58770794372327 14.399303907055245 1.5454396197933677 0 0 0
46 3 18.705249698012445 14.399303907055245 1.5454396197933633 0 0 0
47 3 21.82279145230162 14.399303907055245 1.5454396197933675 0 0 0
48 3 24.94033320659079 14.399303907055245 1.5454396197933666 0 0 0
280 3 28.05787496087997 14.399303907055238 1.545439619793365 0 0 0
281 3 31.17541671516913 14.399303907055245 1.5454396197933682 0 0 0
282 3 34.29295846945833 14.399303907055245 1.5454396197933662 0 0 0
283 3 37.410500223747505 14.399303907055245 1.5454396197933604 0 0 0
49 3 1.5587700494220595 17.099173375155402 1.5454396197933713 0 0 0
50 3 4.67631180371105 17.099173375155388 1.5454396197933566 0 0 0
51 3 7.793853558000229 17.09917337515541 1.5454396197933686 0 0 0
52 3 10.911395312289473 17.099173375155402 1.5454396197933675 0 0 0
53 3 14.028937066578669 17.099173375155402 1.5454396197933666 0 0 0
54 3 17.146478820867856 17.099173375155402 1.5454396197933633 0 0 0
55 3 20.264020575157026 17.099173375155402 1.5454396197933662 0 0 0
56 3 23.381562329446197 17.099173375155395 1.5454396197933646 0 0 0
284 3 26.49910408373537 17.099173375155395 1.5454396197933673 0 0 0
285 3 29.616645838024553 17.099173375155395 1.5454396197933702 0 0 0
286 3 32.734187592313745 17.099173375155402 1.5454396197933695 0 0 0
287 3 35.85172934660293 17.099173375155402 1.5454396197933595 0 0 0
288 3 38.9692711008921 17.09917337515541 1.5454396197933633 0 0 0
57 3 3.117540926566492 19.799042843255524 1.545439619793382 0 0 0
58 3 6.235082680855632 19.799042843255556 1.5454396197933595 0 0 0
59 3 9.35262443514485 19.799042843255574 1.5454396197933706 0 0 0
60 3 12.470166189434073 19.799042843255567 1.5454396197933673 0 0 0
61 3 15.587707943723268 19.799042843255567 1.545439619793365 0 0 0
62 3 18.705249698012445 19.799042843255567 1.5454396197933624 0 0 0
63 3 21.82279145230162 19.799042843255567 1.545439619793361 0 0 0
64 3 24.94033320659079 19.799042843255563 1.5454396197933666 0 0 0
289 3 28.057874960879968 19.799042843255556 1.5454396197933646 0 0 0
290 3 31.175416715169153 19.799042843255556 1.545439619793365 0 0 0
291 3 34.29295846945833 19.799042843255567 1.5454396197933618 0 0 0
292 3 37.41050022374751 19.799042843255567 1.5454396197933653 0 0 0
193 3 1.5587700494219916 22.498912311355692 1.5454396197934117 0 0 0
194 3 4.67631180371105 22.49891231135569 1.5454396197933575 0 0 0
195 3 7.793853558000246 22.49891231135572 1.5454396197933657 0 0 0
196 3 10.911395312289477 22.49891231135573 1.5454396197933649 0 0 0
197 3 14.028937066578669 22.49891231135573 1.5454396197933662 0 0 0
198 3 17.146478820867863 22.49891231135572 1.5454396197933598 0 0 0
199 3 20.26402057515702 22.498912311355717 1.545439619793363 0 0 0
200 3 23.38156232944622 22.498912311355717 1.5454396197933613 0 0 0
365 3 26.49910408373537 22.498912311355717 1.5454396197933602 0 0 0
366 3 29.616645838024553 22.498912311355717 1.5454396197933595 0 0 0
367 3 32.734187592313745 22.498912311355717 1.5454396197933584 0 0 0
368 3 35.85172934660293 22.49891231135573 1.5454396197933595 0 0 0
369 3 38.9692711008921 22.498912311355735 1.5454396197933706 0 0 0
201 3 3.1175409265665386 25.198781779455842 1.5454396197933764 0 0 0
202 3 6.235082680855632 25.198781779455867 1.5454396197933618 0 0 0
203 3 9.352624435144861 25.19878177945588 1.5454396197933653 0 0 0
204 3 12.470166189434073 25.198781779455867 1.5454396197933673 0 0 0
205 3 15.58770794372327 25.198781779455867 1.5454396197933684 0 0 0
206 3 18.705249698012445 25.198781779455867 1.5454396197933624 0 0 0
207 3 21.822791452301608 25.198781779455867 1.5454396197933682 0 0 0
208 3 24.94033320659079 25.198781779455867 1.5454396197933695 0 0 0
370 3 28.05787496087997 25.198781779455867 1.545439619793365 0 0 0
371 3 31.17541671516913 25.198781779455867 1.5454396197933666 0 0 0
372 3 34.292958469458334 25.198781779455867 1.545439619793364 0 0 0
373 3 37.41050022374751 25.198781779455867 1.5454396197933695 0 0 0
209 3 1.5587700494221106 27.898651247556014 1.5454396197933713 0 0 0
210 3 4.67631180371105 27.898651247556028 1.545439619793361 0 0 0
211 3 7.793853558000237 27.898651247556042 1.5454396197933657 0 0 0
212 3 10.911395312289473 27.898651247556057 1.5454396197933729 0 0 0
213 3 14.028937066578669 27.898651247556042 1.5454396197933726 0 0 0
214 3 17.146478820867856 27.898651247556028 1.545439619793367 0 0 0
215 3 20.264020575157037 27.898651247556028 1.5454396197933722 0 0 0
216 3 23.381562329446208 27.898651247556028 1.5454396197933706 0 0 0
374 3 26.49910408373537 27.898651247556028 1.545439619793375 0 0 0
375 3 29.616645838024553 27.898651247556028 1.545439619793375 0 0 0
376 3 32.734187592313745 27.898651247556042 1.5454396197933726 0 0 0
377 3 35.85172934660293 27.898651247556042 1.5454396197933695 0 0 0
378 3 38.96927110089209 27.898651247556057 1.5454396197933757 0 0 0
65 2 1.5587700494221184 0.8999565665544452 4.663253713539982 0 0 0
66 2 4.676311803711065 0.8999565665544582 4.66325371353997 0 0 0
67 1 3.1175409265665848 1.7999129071301596 3.1043466666666713 0 0 0
68 1 6.235082680855622 1.799912907130139 3.1043466666666566 0 0 0
69 2 7.793853558000227 0.8999565665545026 4.663253713539958 0 0 0
70 1 9.352624435144856 1.799912907130151 3.1043466666666664 0 0 0
71 2 10.911395312289473 0.8999565665545214 4.66325371353998 0 0 0
72 1 12.470166189434073 1.799912907130156 3.104346666666667 0 0 0
73 2 14.028937066578669 0.8999565665544976 4.6632537135399765 0 0 0
74 1 15.58770794372327 1.7999129071301467 3.104346666666669 0 0 0
75 2 17.146478820867866 0.8999565665545078 4.663253713539981 0 0 0
76 2 20.264020575157026 0.8999565665544927 4.663253713539974 0 0 0
77 1 18.705249698012445 1.799912907130156 3.1043466666666673 0 0 0
78 1 21.82279145230162 1.7999129071301483 3.1043466666666664 0 0 0
79 2 23.381562329446208 0.8999565665545043 4.663253713539982 0 0 0
80 1 24.94033320659079 1.7999129071301483 3.1043466666666686 0 0 0
293 2 26.49910408373537 0.8999565665545031 4.663253713539984 0 0 0
294 1 28.05787496087997 1.7999129071301476 3.104346666666667 0 0 0
295 2 29.616645838024553 0.8999565665544783 4.66325371353997 0 0 0
296 1 31.17541671516913 1.7999129071301483 3.104346666666668 0 0 0
297 2 32.73418759231374 0.899956566554489 4.663253713539967 0 0 0
298 2 35.85172934660291 0.8999565665545027 4.663253713539983 0 0 0
299 1 34.292958469458334 1.7999129071301467 3.104346666666665 0 0 0
300 1 37.41050022374751 1.799912907130157 3.104346666666671 0 0 0
301 2 38.9692711008921 0.8999565665545062 4.663253713539978 0 0 0
81 1 1.5587700494220873 4.499782375230331 3.104346666666695 0 0 0
82 1 4.676311803711068 4.499782375230309 3.1043466666666624 0 0 0
83 2 3.1175409265665324 3.599826034654622 4.663253713539973 0 0 0
84 1 7.793853558000238 4.4997823752303 3.1043466666666597 0 0 0
85 2 6.235082680855636 3.599826034654636 4.663253713539956 0 0 0
86 2 9.352624435144843 3.5998260346546562 4.663253713539961 0 0 0
87 1 10.911395312289468 4.4997823752303 3.104346666666667 0 0 0
88 2 12.470166189434073 3.599826034654646 4.663253713539973 0 0 0
89 1 14.028937066578669 4.499782375230303 3.1043466666666677 0 0 0
90 2 15.587707943723268 3.599826034654643 4.663253713539971 0 0 0
91 1 17.146478820867856 4.4997823752303 3.1043466666666664 0 0 0
92 1 20.26402057515702 4.499782375230302 3.104346666666667 0 0 0
93 2 18.705249698012445 3.599826034654641 4.663253713539973 0 0 0
94 1 23.381562329446197 4.499782375230302 3.1043466666666673 0 0 0
95 2 21.822791452301608 3.599826034654639 4.663253713539971 0 0 0
96 2 24.94033320659079 3.599826034654636 4.663253713539969 0 0 0
302 1 26.49910408373537 4.499782375230296 3.1043466666666677 0 0 0
303 2 28.05787496087997 3.599826034654636 4.663253713539972 0 0 0
304 1 29.616645838024553 4.499782375230305 3.1043466666666677 0 0 0
305 2 31.17541671516913 3.5998260346546394 4.663253713539971 0 0 0
306 1 32.73418759231374 4.499782375230295 3.1043466666666677 0 0 0
307 1 35.85172934660293 4.499782375230307 3.104346666666667 0 0 0
308 2 34.29295846945833 3.5998260346546496 4.66325371353997 0 0 0
309 1 38.96927110089209 4.499782375230305 3.1043466666666673 0 0 0
310 2 37.41050022374751 3.599826034654641 4.663253713539972 0 0 0
97 2 1.5587700494221055 6.299695502754774 4.663253713539993 0 0 0
98 2 4.676311803711067 6.299695502754774 4.663253713539967 0 0 0
99 1 3.1175409265665794 7.199651843330476 3.1043466666666713 0 0 0
100 1 6.235082680855626 7.199651843330445 3.1043466666666575 0 0 0
101 2 7.793853558000234 6.299695502754805 4.663253713539958 0 0 0
102 1 9.352624435144852 7.199651843330448 3.1043466666666664 0 0 0
103 2 10.911395312289468 6.299695502754801 4.66325371353997 0 0 0
104 1 12.470166189434073 7.199651843330448 3.104346666666669 0 0 0
105 2 14.028937066578669 6.2996955027547985 4.663253713539969 0 0 0
106 1 15.58770794372327 7.199651843330452 3.1043466666666677 0 0 0
107 2 17.146478820867863 6.299695502754798 4.663253713539971 0 0 0
108 2 20.26402057515702 6.299695502754795 4.66325371353997 0 0 0
109 1 18.705249698012437 7.199651843330458 3.104346666666667 0 0 0
110 1 21.82279145230162 7.199651843330452 3.104346666666667 0 0 0
111 2 23.381562329446197 6.299695502754798 4.66325371353997 0 0 0
112 1 24.94033320659079 7.199651843330452 3.104346666666668 0 0 0
311 2 26.49910408373537 6.299695502754795 4.663253713539969 0 0 0
312 1 28.05787496087997 7.199651843330458 3.104346666666668 0 0 0
313 2 29.616645838024553 6.299695502754795 4.66325371353997 0 0 0
314 1 31.17541671516915 7.199651843330458 3.104346666666668 0 0 0
315 2 32.73418759231374 6.299695502754801 4.663253713539966 0 0 0
316 2 35.85172934660293 6.299695502754795 4.663253713539975 0 0 0
317 1 34.292958469458334 7.199651843330452 3.1043466666666673 0 0 0
318 1 37.41050022374751 7.199651843330465 3.1043466666666695 0 0 0
319 2 38.9692711008921 6.299695502754795 4.663253713539971 0 0 0
113 1 1.5587700494220436 9.89952131143061 3.104346666666672 0 0 0
114 1 4.676311803711065 9.899521311430606 3.1043466666666553 0 0 0
115 2 3.1175409265665177 8.99956497085494 4.663253713539955 0 0 0
116 1 7.793853558000238 9.899521311430592 3.1043466666666597 0 0 0
117 2 6.235082680855636 8.99956497085494 4.66325371353996 0 0 0
118 2 9.352624435144843 8.999564970854957 4.663253713539961 0 0 0
119 1 10.911395312289468 9.899521311430599 3.1043466666666664 0 0 0
120 2 12.470166189434073 8.999564970854948 4.663253713539972 0 0 0
121 1 14.028937066578669 9.899521311430599 3.1043466666666677 0 0 0
122 2 15.587707943723268 8.999564970854948 4.663253713539972 0 0 0
123 1 17.146478820867863 9.899521311430599 3.104346666666667 0 0 0
124 1 20.26402057515702 9.89952131143061 3.104346666666668 0 0 0
125 2 18.705249698012445 8.999564970854948 4.663253713539971 0 0 0
126 1 23.381562329446197 9.899521311430602 3.1043466666666664 0 0 0
127 2 21.82279145230162 8.999564970854944 4.663253713539969 0 0 0
128 2 24.94033320659079 8.999564970854944 4.663253713539973 0 0 0
320 1 26.49910408373537 9.899521311430599 3.1043466666666686 0 0 0
321 2 28.05787496087997 8.999564970854944 4.66325371353997 0 0 0
322 1 29.616645838024553 9.899521311430602 3.1043466666666686 0 0 0
323 2 31.175416715169153 8.999564970854944 4.663253713539973 0 0 0
324 1 32.734187592313745 9.899521311430599 3.1043466666666686 0 0 0
325 1 35.85172934660291 9.899521311430606 3.1043466666666673 0 0 0
326 2 34.29295846945833 8.999564970854957 4.6632537135399685 0 0 0
327 1 38.96927110089209 9.899521311430602 3.104346666666667 0 0 0
328 2 37.410500223747505 8.999564970854944 4.663253713539976 0 0 0
129 2 1.5587700494221024 11.69943443895506 4.663253713539982 0 0 0
130 2 4.676311803711068 11.699434438955075 4.663253713539966 0 0 0
131 1 3.11754092656658 12.599390779530763 3.104346666666673 0 0 0
132 1 6.235082680855632 12.599390779530735 3.1043466666666557 0 0 0
133 2 7.793853558000229 11.699434438955102 4.663253713539954 0 0 0
134 1 9.352624435144852 12.599390779530744 3.1043466666666633 0 0 0
135 2 10.911395312289468 11.699434438955102 4.663253713539967 0 0 0
136 1 12.470166189434067 12.599390779530756 3.104346666666668 0 0 0
137 2 14.028937066578669 11.699434438955102 4.66325371353997 0 0 0
138 1 15.587707943723268 12.599390779530756 3.1043466666666673 0 0 0
139 2 17.146478820867863 11.699434438955102 4.663253713539973 0 0 0
140 2 20.264020575157026 11.699434438955102 4.66325371353997 0 0 0
141 1 18.705249698012434 12.599390779530756 3.1043466666666677 0 0 0
142 1 21.82279145230162 12.599390779530756 3.1043466666666686 0 0 0
143 2 23.38156232944622 11.699434438955102 4.663253713539971 0 0 0
144 1 24.94033320659079 12.59939077953075 3.104346666666668 0 0 0
329 2 26.49910408373537 11.699434438955102 4.663253713539973 0 0 0
330 1 28.05787496087997 12.599390779530756 3.104346666666668 0 0 0
331 2 29.616645838024553 11.699434438955091 4.663253713539971 0 0 0
332 1 31.17541671516913 12.599390779530756 3.1043466666666686 0 0 0
333 2 32.73418759231374 11.699434438955102 4.663253713539968 0 0 0
334 2 35.85172934660291 11.699434438955091 4.663253713539975 0 0 0
335 1 34.29295846945833 12.599390779530742 3.1043466666666677 0 0 0
336 1 37.41050022374751 12.599390779530763 3.104346666666667 0 0 0
337 2 38.9692711008921 11.699434438955109 4.663253713539969 0 0 0
145 1 1.5587700494220846 15.299260247630938 3.1043466666666975 0 0 0
146 1 4.676311803711072 15.299260247630905 3.1043466666666664 0 0 0
147 2 3.1175409265665373 14.39930390705523 4.663253713539976 0 0 0
148 1 7.793853558000237 15.299260247630897 3.104346666666661 0 0 0
149 2 6.235082680855636 14.399303907055238 4.663253713539961 0 0 0
150 2 9.35262443514485 14.399303907055252 4.6632537135399605 0 0 0
151 1 10.911395312289468 15.299260247630897 3.1043466666666655 0 0 0
152 2 12.470166189434073 14.399303907055245 4.663253713539969 0 0 0
153 1 14.028937066578669 15.299260247630905 3.1043466666666673 0 0 0
154 2 15.58770794372327 14.399303907055252 4.663253713539968 0 0 0
155 1 17.146478820867863 15.299260247630905 3.1043466666666664 0 0 0
156 1 20.26402057515702 15.299260247630905 3.1043466666666664 0 0 0
157 2 18.705249698012445 14.399303907055245 4.6632537135399685 0 0 0
158 1 23.381562329446197 15.299260247630897 3.1043466666666646 0 0 0
159 2 21.822791452301608 14.399303907055245 4.663253713539967 0 0 0
160 2 24.94033320659079 14.399303907055245 4.663253713539969 0 0 0
338 1 26.49910408373537 15.299260247630897 3.104346666666671 0 0 0
339 2 28.05787496087997 14.399303907055238 4.663253713539974 0 0 0
340 1 29.616645838024553 15.299260247630905 3.104346666666672 0 0 0
341 2 31.17541671516913 14.399303907055245 4.6632537135399685 0 0 0
342 1 32.734187592313745 15.299260247630897 3.104346666666669 0 0 0
343 1 35.85172934660291 15.299260247630912 3.1043466666666664 0 0 0
344 2 34.29295846945833 14.399303907055245 4.663253713539969 0 0 0
345 1 38.96927110089209 15.299260247630912 3.104346666666664 0 0 0
346 2 37.410500223747505 14.399303907055245 4.663253713539973 0 0 0
161 2 1.5587700494220578 17.099173375155402 4.663253713539981 0 0 0
162 2 4.676311803711062 17.099173375155377 4.663253713539972 0 0 0
163 1 3.1175409265665714 17.999129715731062 3.104346666666671 0 0 0
164 1 6.235082680855628 17.99912971573105 3.1043466666666655 0 0 0
165 2 7.793853558000229 17.099173375155395 4.663253713539961 0 0 0
166 1 9.352624435144852 17.999129715731062 3.1043466666666677 0 0 0
167 2 10.911395312289468 17.099173375155402 4.663253713539968 0 0 0
168 1 12.470166189434073 17.999129715731062 3.1043466666666695 0 0 0
169 2 14.028937066578669 17.099173375155402 4.663253713539971 0 0 0
170 1 15.58770794372326 17.999129715731062 3.104346666666669 0 0 0
171 2 17.146478820867866 17.099173375155402 4.66325371353997 0 0 0
172 2 20.264020575157026 17.099173375155402 4.663253713539967 0 0 0
173 1 18.705249698012434 17.999129715731062 3.1043466666666637 0 0 0
174 1 21.822791452301608 17.99912971573105 3.104346666666668 0 0 0
175 2 23.381562329446208 17.099173375155395 4.663253713539971 0 0 0
176 1 24.94033320659081 17.999129715731062 3.104346666666668 0 0 0
347 2 26.49910408373537 17.099173375155395 4.663253713539971 0 0 0
348 1 28.05787496087997 17.999129715731062 3.1043466666666673 0 0 0
349 2 29.616645838024553 17.09917337515541 4.6632537135399685 0 0 0
350 1 31.17541671516913 17.99912971573105 3.1043466666666673 0 0 0
351 2 32.73418759231374 17.099173375155402 4.663253713539967 0 0 0
352 2 35.85172934660293 17.099173375155402 4.663253713539976 0 0 0
353 1 34.292958469458334 17.999129715731062 3.104346666666668 0 0 0
354 1 37.41050022374751 17.99912971573107 3.1043466666666677 0 0 0
355 2 38.96927110089209 17.09917337515541 4.663253713539971 0 0 0
177 1 1.5587700494218575 20.698999183831155 3.1043466666666744 0 0 0
178 1 4.676311803711055 20.69899918383122 3.10434666666666 0 0 0
179 2 3.117540926566499 19.799042843255524 4.663253713539955 0 0 0
180 1 7.793853558000227 20.698999183831205 3.1043466666666646 0 0 0
181 2 6.235082680855632 19.799042843255556 4.663253713539966 0 0 0
182 2 9.352624435144847 19.799042843255574 4.663253713539966 0 0 0
183 1 10.911395312289468 20.69899918383122 3.104346666666668 0 0 0
184 2 12.470166189434073 19.799042843255567 4.66325371353997 0 0 0
185 1 14.028937066578669 20.698999183831223 3.1043466666666677 0 0 0
186 2 15.587707943723268 19.799042843255567 4.66325371353997 0 0 0
187 1 17.146478820867863 20.69899918383122 3.104346666666667 0 0 0
188 1 20.26402057515702 20.69899918383122 3.1043466666666655 0 0 0
189 2 18.705249698012445 19.799042843255567 4.663253713539969 0 0 0
190 1 23.381562329446197 20.69899918383122 3.1043466666666664 0 0 0
191 2 21.82279145230162 19.799042843255567 4.663253713539971 0 0 0
192 2 24.94033320659079 19.799042843255567 4.663253713539968 0 0 0
356 1 26.49910408373537 20.69899918383122 3.1043466666666673 0 0 0
357 2 28.057874960879968 19.799042843255563 4.66325371353997 0 0 0
358 1 29.616645838024553 20.69899918383122 3.1043466666666655 0 0 0
359 2 31.175416715169153 19.799042843255567 4.663253713539968 0 0 0
360 1 32.734187592313745 20.698999183831212 3.104346666666665 0 0 0
361 1 35.85172934660293 20.698999183831237 3.1043466666666646 0 0 0
362 2 34.29295846945833 19.799042843255574 4.6632537135399685 0 0 0
363 1 38.96927110089209 20.698999183831223 3.104346666666669 0 0 0
364 2 37.41050022374751 19.799042843255567 4.663253713539971 0 0 0
217 2 1.5587700494220038 22.498912311355717 4.6632537135399454 0 0 0
218 2 4.67631180371106 22.498912311355667 4.66325371353997 0 0 0
219 1 3.117540926566551 23.398868651931384 3.1043466666666713 0 0 0
220 1 6.235082680855641 23.398868651931373 3.1043466666666637 0 0 0
221 2 7.793853558000242 22.49891231135572 4.663253713539963 0 0 0
222 1 9.352624435144858 23.39886865193136 3.104346666666668 0 0 0
223 2 10.911395312289473 22.498912311355735 4.663253713539972 0 0 0
224 1 12.470166189434083 23.398868651931373 3.104346666666668 0 0 0
225 2 14.028937066578669 22.49891231135573 4.66325371353997 0 0 0
226 1 15.58770794372326 23.398868651931373 3.104346666666668 0 0 0
227 2 17.146478820867866 22.49891231135572 4.663253713539974 0 0 0
228 2 20.26402057515702 22.498912311355717 4.663253713539971 0 0 0
229 1 18.705249698012437 23.398868651931373 3.104346666666665 0 0 0
230 1 21.82279145230162 23.39886865193136 3.104346666666667 0 0 0
231 2 23.381562329446208 22.498912311355717 4.663253713539974 0 0 0
232 1 24.94033320659079 23.398868651931373 3.1043466666666695 0 0 0
379 2 26.49910408373537 22.498912311355717 4.663253713539975 0 0 0
380 1 28.05787496087997 23.39886865193136 3.104346666666664 0 0 0
381 2 29.616645838024553 22.498912311355717 4.66325371353997 0 0 0
382 1 31.175416715169153 23.39886865193136 3.1043466666666615 0 0 0
383 2 32.734187592313745 22.498912311355717 4.663253713539968 0 0 0
384 2 35.85172934660291 22.498912311355717 4.6632537135399765 0 0 0
385 1 34.29295846945831 23.398868651931373 3.1043466666666593 0 0 0
386 1 37.410500223747505 23.398868651931384 3.1043466666666766 0 0 0
387 2 38.9692711008921 22.49891231135573 4.663253713539975 0 0 0
233 1 1.5587700494220897 26.09873812003155 3.1043466666666943 0 0 0
234 1 4.67631180371107 26.09873812003152 3.104346666666663 0 0 0
235 2 3.1175409265665373 25.198781779455842 4.663253713539973 0 0 0
236 1 7.793853558000238 26.098738120031534 3.1043466666666606 0 0 0
237 2 6.235082680855636 25.198781779455867 4.6632537135399605 0 0 0
238 2 9.35262443514485 25.19878177945588 4.663253713539962 0 0 0
239 1 10.911395312289468 26.098738120031534 3.1043466666666677 0 0 0
240 2 12.470166189434073 25.198781779455867 4.663253713539971 0 0 0
241 1 14.028937066578669 26.098738120031534 3.1043466666666686 0 0 0
242 2 15.58770794372327 25.198781779455867 4.6632537135399685 0 0 0
243 1 17.146478820867856 26.098738120031534 3.1043466666666677 0 0 0
244 1 20.26402057515702 26.098738120031534 3.10434666666667 0 0 0
245 2 18.705249698012445 25.198781779455867 4.663253713539974 0 0 0
246 1 23.381562329446197 26.098738120031538 3.104346666666667 0 0 0
247 2 21.82279145230162 25.198781779455867 4.66325371353997 0 0 0
248 2 24.94033320659079 25.198781779455867 4.663253713539966 0 0 0
388 1 26.49910408373537 26.09873812003152 3.104346666666669 0 0 0
389 2 28.05787496087997 25.198781779455867 4.663253713539969 0 0 0
390 1 29.616645838024553 26.098738120031534 3.1043466666666686 0 0 0
391 2 31.17541671516913 25.198781779455867 4.663253713539964 0 0 0
392 1 32.73418759231374 26.09873812003152 3.1043466666666664 0 0 0
393 1 35.85172934660293 26.09873812003155 3.1043466666666735 0 0 0
394 2 34.29295846945831 25.198781779455867 4.663253713539971 0 0 0
395 1 38.96927110089209 26.098738120031534 3.1043466666666704 0 0 0
396 2 37.410500223747505 25.198781779455867 4.663253713539972 0 0 0
249 2 1.5587700494221033 27.898651247556014 4.663253713539983 0 0 0
250 2 4.676311803711065 27.898651247556028 4.663253713539966 0 0 0
251 2 7.793853558000237 27.898651247556057 4.663253713539951 0 0 0
252 2 10.911395312289473 27.898651247556057 4.663253713539964 0 0 0
253 2 14.028937066578669 27.898651247556057 4.663253713539966 0 0 0
254 2 17.146478820867866 27.898651247556042 4.663253713539964 0 0 0
255 2 20.26402057515702 27.898651247556028 4.663253713539964 0 0 0
256 2 23.381562329446208 27.898651247556028 4.663253713539969 0 0 0
397 2 26.49910408373537 27.898651247556028 4.663253713539966 0 0 0
398 2 29.616645838024553 27.898651247556028 4.663253713539962 0 0 0
399 2 32.734187592313745 27.898651247556028 4.663253713539961 0 0 0
400 2 35.85172934660293 27.898651247556028 4.663253713539972 0 0 0
401 2 38.96927110089209 27.898651247556057 4.663253713539968 0 0 0
447 1 18.705249698012437 28.79860758813171 3.104346666666661 0 0 0
448 1 21.82279145230162 28.79860758813171 3.10434666666667 0 0 0
449 1 24.94033320659081 28.798607588131695 3.104346666666671 0 0 0
672 1 28.05787496087997 28.79860758813171 3.104346666666669 0 0 0
673 1 31.175416715169153 28.798607588131674 3.104346666666668 0 0 0
674 1 34.29295846945834 28.79860758813171 3.10434666666667 0 0 0
675 1 37.410500223747526 28.798607588131723 3.10434666666667 0 0 0
442 1 3.1175409265665786 28.798607588131727 3.1043466666666717 0 0 0
443 1 6.235082680855626 28.798607588131695 3.1043466666666553 0 0 0
444 1 9.352624435144852 28.79860758813171 3.1043466666666646 0 0 0
445 1 12.470166189434073 28.798607588131695 3.1043466666666695 0 0 0
446 1 15.58770794372327 28.79860758813171 3.1043466666666686 0 0 0
402 3 3.117540926566535 30.598520715656193 1.5454396197933715 0 0 0
403 3 6.235082680855636 30.598520715656196 1.5454396197933538 0 0 0
404 3 9.352624435144852 30.598520715656218 1.5454396197933653 0 0 0
405 3 12.470166189434073 30.598520715656207 1.5454396197933649 0 0 0
406 3 15.58770794372326 30.598520715656218 1.545439619793365 0 0 0
407 3 18.705249698012434 30.598520715656207 1.5454396197933626 0 0 0
408 3 21.82279145230162 30.598520715656207 1.5454396197933677 0 0 0
409 3 24.94033320659079 30.598520715656196 1.5454396197933662 0 0 0
650 3 28.05787496087997 30.598520715656196 1.5454396197933633 0 0 0
651 3 31.17541671516913 30.598520715656207 1.545439619793364 0 0 0
652 3 34.29295846945833 30.598520715656196 1.5454396197933686 0 0 0
653 3 37.41050022374751 30.598520715656218 1.5454396197933598 0 0 0
410 3 1.5587700494221084 33.29839018375635 1.545439619793359 0 0 0
411 3 4.676311803711047 33.29839018375635 1.5454396197933604 0 0 0
412 3 7.793853558000227 33.298390183756375 1.5454396197933655 0 0 0
413 3 10.911395312289473 33.29839018375636 1.5454396197933706 0 0 0
414 3 14.028937066578669 33.29839018375636 1.5454396197933695 0 0 0
415 3 17.146478820867863 33.29839018375636 1.5454396197933682 0 0 0
416 3 20.264020575157026 33.29839018375636 1.545439619793371 0 0 0
417 3 23.381562329446208 33.29839018375636 1.5454396197933697 0 0 0
654 3 26.49910408373537 33.29839018375636 1.5454396197933737 0 0 0
655 3 29.616645838024553 33.29839018375636 1.5454396197933722 0 0 0
656 3 32.73418759231374 33.29839018375636 1.5454396197933742 0 0 0
657 3 35.85172934660291 33.29839018375636 1.5454396197933666 0 0 0
658 3 38.9692711008921 33.29839018375636 1.545439619793368 0 0 0
418 3 3.1175409265664853 35.99825965185651 1.545439619793378 0 0 0
419 3 6.235082680855617 35.998259651856536 1.5454396197933538 0 0 0
420 3 9.352624435144842 35.99825965185654 1.5454396197933649 0 0 0
421 3 12.470166189434073 35.998259651856536 1.5454396197933697 0 0 0