LAMMPS data file via write_data, version 2 Aug 2023, timestep = 451, units = metal

19136 atoms
3 atom types

0 623.5083263784587 xlo xhi
0 86.39584843484671 ylo yhi
0 50 zlo zhi
0 0 0 xy xz yz

Masses

1 95.94
2 32.065
3 32.065

Atoms # atomic

1 3 1.558769988222712 0.8999567819282268 1.545439935379352 0 0 0
2 3 4.676311620115874 0.8999567819282542 1.5454399353791228 0 0 0
3 3 7.793853252007872 0.8999567819284338 1.5454399353787718 0 0 0
4 3 10.911394883900105 0.8999567819285456 1.5454399353788162 0 0 0
5 3 14.02893651579259 0.8999567819286759 1.5454399353785613 0 0 0
6 3 17.14647814768503 0.8999567819286172 1.5454399353787824 0 0 0
7 3 20.264019779577424 0.8999567819285945 1.5454399353787969 0 0 0
8 3 23.38156141146966 0.8999567819286107 1.5454399353785837 0 0 0
257 3 26.499103043361867 0.899956781928364 1.5454399353788515 0 0 0
258 3 29.616644675254218 0.8999567819284532 1.545439935378939 0 0 0
259 3 32.73418630714653 0.8999567819286619 1.5454399353785608 0 0 0
260 3 35.85172793903869 0.8999567819283999 1.5454399353788477 0 0 0
261 3 38.96926957093111 0.8999567819282992 1.5454399353792414 0 0 0
9 3 3.117540804169278 3.5998270455173107 1.545439935379422 0 0 0
10 3 6.2350824360621315 3.599827045516949 1.5454399353787853 0 0 0
11 3 9.352624067953935 3.5998270455171406 1.545439935379047 0 0 0
12 3 12.470165699846396 3.599827045517125 1.5454399353789252 0 0 0
13 3 15.587707331738775 3.599827045517147 1.5454399353790178 0 0 0
14 3 18.705248963631192 3.599827045517103 1.545439935379044 0 0 0
15 3 21.82279059552358 3.5998270455171624 1.545439935379001 0 0 0
16 3 24.940332227415787 3.5998270455171326 1.5454399353788653 0 0 0
262 3 28.057873859308003 3.5998270455171126 1.5454399353790282 0 0 0
263 3 31.175415491200383 3.5998270455171464 1.5454399353789514 0 0 0
264 3 34.29295712309263 3.599827045517186 1.5454399353789687 0 0 0
265 3 37.410498754984914 3.599827045517151 1.5454399353790216 0 0 0
17 3 1.5587699882228816 6.299697309106114 1.5454399353792092 0 0 0
18 3 4.676311620115886 6.2996973091062785 1.5454399353790973 0 0 0
19 3 7.793853252007916 6.299697309106061 1.5454399353789987 0 0 0
20 3 10.911394883900103 6.299697309106188 1.5454399353790238 0 0 0
21 3 14.028936515792552 6.299697309106194 1.5454399353790067 0 0 0
22 3 17.14647814768503 6.299697309106164 1.545439935379157 0 0 0
23 3 20.2640197795775 6.299697309106184 1.5454399353790857 0 0 0
24 3 23.381561411469704 6.299697309106136 1.5454399353789097 0 0 0
266 3 26.499103043361817 6.299697309106176 1.5454399353789379 0 0 0
267 3 29.616644675254157 6.299697309106205 1.5454399353791257 0 0 0
268 3 32.73418630714644 6.299697309106146 1.5454399353789445 0 0 0
269 3 35.85172793903873 6.299697309106109 1.5454399353790114 0 0 0
270 3 38.969269570931054 6.299697309106217 1.545439935379148 0 0 0
25 3 3.1175408041692503 8.999567572695385 1.5454399353792625 0 0 0
26 3 6.23508243606189 8.999567572695108 1.545439935379075 0 0 0
27 3 9.35262406795399 8.999567572695103 1.5454399353789838 0 0 0
28 3 12.470165699846351 8.999567572695144 1.5454399353789157 0 0 0
29 3 15.587707331738795 8.999567572695183 1.5454399353790438 0 0 0
30 3 18.705248963631146 8.999567572695096 1.5454399353790196 0 0 0
31 3 21.82279059552356 8.999567572695128 1.5454399353790413 0 0 0
32 3 24.940332227415887 8.999567572695097 1.5454399353789372 0 0 0
271 3 28.057873859308067 8.999567572695087 1.5454399353789516 0 0 0
272 3 31.17541549120031 8.999567572695131 1.545439935378967 0 0 0
273 3 34.292957123092606 8.999567572695122 1.5454399353789605 0 0 0
274 3 37.41049875498491 8.999567572695064 1.5454399353791142 0 0 0
33 3 1.558769988222511 11.69943783628393 1.545439935379539 0 0 0
34 3 4.676311620115759 11.699437836284156 1.5454399353793031 0 0 0
35 3 7.793853252007852 11.69943783628407 1.5454399353790271 0 0 0
36 3 10.91139488390015 11.699437836284048 1.5454399353790076 0 0 0
37 3 14.028936515792582 11.699437836284048 1.5454399353789137 0 0 0
38 3 17.14647814768502 11.699437836284067 1.545439935378999 0 0 0
39 3 20.26401977957744 11.699437836284067 1.5454399353791421 0 0 0
40 3 23.38156141146964 11.699437836284096 1.5454399353790682 0 0 0
275 3 26.499103043361806 11.699437836284048 1.5454399353789972 0 0 0
276 3 29.616644675254225 11.699437836284151 1.5454399353791688 0 0 0
277 3 32.73418630714644 11.699437836283993 1.5454399353788661 0 0 0
278 3 35.851727939038796 11.699437836284005 1.545439935379057 0 0 0
279 3 38.969269570931196 11.699437836284096 1.5454399353791222 0 0 0
41 3 3.1175408041691703 14.399308099873403 1.5454399353793276 0 0 0
42 3 6.235082436062029 14.399308099873057 1.545439935378853 0 0 0
43 3 9.352624067953885 14.399308099873055 1.5454399353790667 0 0 0
44 3 12.470165699846396 14.399308099873034 1.5454399353790031 0 0 0
45 3 15.587707331738814 14.399308099873053 1.5454399353790609 0 0 0
46 3 18.705248963631156 14.399308099872972 1.545439935378989 0 0 0
47 3 21.82279059552349 14.399308099873169 1.5454399353789958 0 0 0
48 3 24.940332227415826 14.39930809987313 1.545439935378916 0 0 0
280 3 28.057873859308106 14.399308099873 1.5454399353790111 0 0 0
281 3 31.17541549120039 14.399308099873082 1.5454399353789743 0 0 0
282 3 34.29295712309253 14.399308099873027 1.5454399353789996 0 0 0
283 3 37.41049875498495 14.399308099872986 1.545439935379187 0 0 0
49 3 1.5587699882247532 17.09917836346103 1.545439935376868 0 0 0
50 3 4.676311620115378 17.099178363462038 1.5454399353789423 0 0 0
51 3 7.793853252007745 17.09917836346191 1.545439935378731 0 0 0
52 3 10.911394883900039 17.099178363461917 1.5454399353789345 0 0 0
53 3 14.028936515792575 17.09917836346189 1.54543993537885 0 0 0
54 3 17.14647814768502 17.099178363461814 1.545439935378972 0 0 0
55 3 20.26401977957746 17.099178363461874 1.5454399353789536 0 0 0
56 3 23.38156141146965 17.099178363461846 1.5454399353786974 0 0 0
284 3 26.499103043361817 17.09917836346187 1.54543993537881 0 0 0
285 3 29.616644675254168 17.099178363461984 1.5454399353789576 0 0 0
286 3 32.73418630714647 17.099178363461828 1.545439935378767 0 0 0
287 3 35.851727939038646 17.099178363461874 1.5454399353789046 0 0 0
288 3 38.9692695709311 17.099178363461835 1.5454399353790338 0 0 0
57 3 3.1175408041695434 19.799048627050755 1.545439935378499 0 0 0
58 3 6.235082436061786 19.799048627050585 1.5454399353790422 0 0 0
59 3 9.352624067953906 19.79904862705074 1.545439935379021 0 0 0
60 3 12.470165699846376 19.79904862705079 1.5454399353790982 0 0 0
61 3 15.587707331738867 19.799048627050755 1.5454399353791475 0 0 0
62 3 18.705248963631213 19.79904862705066 1.5454399353791184 0 0 0
63 3 21.822790595523625 19.79904862705088 1.5454399353791812 0 0 0
64 3 24.940332227415848 19.79904862705071 1.5454399353789996 0 0 0
289 3 28.057873859308028 19.799048627050805 1.545439935379091 0 0 0
290 3 31.175415491200358 19.799048627050702 1.5454399353790278 0 0 0
291 3 34.29295712309255 19.79904862705079 1.5454399353790653 0 0 0
292 3 37.41049875498495 19.799048627050784 1.5454399353791837 0 0 0
193 3 1.558769988223052 22.498918890639384 1.5454399353790964 0 0 0
194 3 4.676311620115613 22.498918890639818 1.545439935379178 0 0 0
195 3 7.793853252007837 22.498918890639654 1.5454399353790023 0 0 0
196 3 10.91139488390007 22.4989188906399 1.5454399353790282 0 0 0
197 3 14.028936515792605 22.49891889063987 1.545439935379009 0 0 0
198 3 17.14647814768503 22.498918890639914 1.5454399353790853 0 0 0
199 3 20.264019779577424 22.498918890639928 1.545439935379187 0 0 0
200 3 23.381561411469665 22.498918890639928 1.5454399353789614 0 0 0
365 3 26.499103043361767 22.498918890639874 1.5454399353788981 0 0 0
366 3 29.616644675254225 22.498918890639914 1.5454399353792112 0 0 0
367 3 32.73418630714654 22.498918890639874 1.5454399353789523 0 0 0
368 3 35.85172793903867 22.498918890639874 1.5454399353791024 0 0 0
369 3 38.969269570931054 22.4989188906399 1.5454399353791326 0 0 0
201 3 3.1175408041694577 25.198789154228816 1.5454399353791588 0 0 0
202 3 6.235082436061916 25.19878915422853 1.5454399353790065 0 0 0
203 3 9.352624067953998 25.19878915422868 1.5454399353789583 0 0 0
204 3 12.470165699846296 25.19878915422872 1.5454399353789052 0 0 0
205 3 15.587707331738764 25.198789154228816 1.5454399353789605 0 0 0
206 3 18.705248963631156 25.19878915422868 1.545439935378901 0 0 0
207 3 21.82279059552362 25.198789154228898 1.5454399353790016 0 0 0
208 3 24.94033222741589 25.198789154228777 1.545439935378905 0 0 0
370 3 28.05787385930801 25.198789154228777 1.5454399353789525 0 0 0
371 3 31.17541549120031 25.198789154228844 1.5454399353790778 0 0 0
372 3 34.292957123092584 25.198789154228912 1.545439935378727 0 0 0
373 3 37.41049875498493 25.198789154228695 1.545439935379007 0 0 0
209 3 1.5587699882227157 27.898659417817885 1.5454399353791484 0 0 0
210 3 4.676311620115756 27.89865941781779 1.5454399353793145 0 0 0
211 3 7.793853252007971 27.898659417817555 1.5454399353791455 0 0 0
212 3 10.911394883900053 27.898659417817726 1.5454399353790405 0 0 0
213 3 14.028936515792541 27.89865941781768 1.5454399353790196 0 0 0
214 3 17.146478147684952 27.89865941781758 1.5454399353791144 0 0 0
215 3 20.26401977957738 27.898659417817594 1.5454399353791204 0 0 0
216 3 23.38156141146964 27.89865941781768 1.54543993537895 0 0 0
374 3 26.499103043361877 27.89865941781761 1.545439935378855 0 0 0
375 3 29.616644675254168 27.898659417817836 1.5454399353789772 0 0 0
376 3 32.734186307146395 27.898659417817548 1.54543993537888 0 0 0
377 3 35.85172793903874 27.898659417817555 1.5454399353790411 0 0 0
378 3 38.9692695709311 27.898659417817708 1.5454399353791852 0 0 0
65 2 1.5587699882228534 0.8999567819278937 4.663253397953621 0 0 0
66 2 4.676311620115729 0.8999567819284218 4.663253397954175 0 0 0
67 1 3.117540804170398 1.7999135370339765 3.104346666666801 0 0 0
68 1 6.23508243606205 1.7999135370345063 3.104346666666687 0 0 0
69 2 7.793853252007887 0.8999567819284378 4.663253397954592 0 0 0
70 1 9.352624067954002 1.7999135370344377 3.1043466666666717 0 0 0
71 2 10.91139488390008 0.8999567819285565 4.663253397954545 0 0 0
72 1 12.470165699846326 1.7999135370345025 3.1043466666666824 0 0 0
73 2 14.028936515792612 0.8999567819286569 4.663253397954746 0 0 0
74 1 15.587707331739006 1.7999135370344523 3.1043466666666686 0 0 0
75 2 17.14647814768502 0.8999567819286638 4.663253397954602 0 0 0
76 2 20.26401977957744 0.8999567819285764 4.66325339795457 0 0 0
77 1 18.705248963631202 1.799913537034599 3.1043466666666815 0 0 0
78 1 21.822790595523163 1.7999135370344215 3.104346666666702 0 0 0
79 2 23.38156141146969 0.8999567819286056 4.663253397954774 0 0 0
80 1 24.94033222741585 1.7999135370344004 3.104346666666623 0 0 0
293 2 26.499103043361828 0.8999567819283819 4.663253397954501 0 0 0
294 1 28.057873859308266 1.799913537034517 3.1043466666667 0 0 0
295 2 29.616644675254218 0.8999567819284514 4.663253397954434 0 0 0
296 1 31.1754154912 1.7999135370344794 3.1043466666666872 0 0 0
297 2 32.73418630714645 0.899956781928666 4.663253397954825 0 0 0
298 2 35.85172793903872 0.8999567819283849 4.663253397954474 0 0 0
299 1 34.29295712309269 1.7999135370344603 3.1043466666666615 0 0 0
300 1 37.410498754985134 1.7999135370345187 3.1043466666666886 0 0 0
301 2 38.96926957093113 0.8999567819283094 4.663253397954142 0 0 0
81 1 1.5587699882249888 4.499783800624237 3.104346666666435 0 0 0
82 1 4.67631162011534 4.499783800623554 3.104346666666789 0 0 0
83 2 3.117540804169307 3.599827045517226 4.663253397953882 0 0 0
84 1 7.7938532520079855 4.499783800623373 3.1043466666665815 0 0 0
85 2 6.235082436061954 3.599827045516987 4.663253397954383 0 0 0
86 2 9.352624067953956 3.599827045517148 4.663253397954335 0 0 0
87 1 10.91139488390002 4.499783800623358 3.104346666666678 0 0 0
88 2 12.470165699846396 3.599827045517154 4.663253397954402 0 0 0
89 1 14.028936515792815 4.499783800623335 3.104346666666687 0 0 0
90 2 15.587707331738775 3.599827045517162 4.663253397954325 0 0 0
91 1 17.146478147685045 4.499783800623489 3.104346666666683 0 0 0
92 1 20.264019779577154 4.499783800623437 3.104346666666652 0 0 0
93 2 18.705248963631206 3.599827045517095 4.663253397954293 0 0 0
94 1 23.381561411469306 4.499783800623416 3.104346666666673 0 0 0
95 2 21.82279059552358 3.59982704551721 4.6632533979543735 0 0 0
96 2 24.940332227415787 3.5998270455171695 4.663253397954485 0 0 0
302 1 26.499103043361956 4.499783800623393 3.1043466666666863 0 0 0
303 2 28.05787385930803 3.5998270455171415 4.663253397954329 0 0 0
304 1 29.616644675254268 4.499783800623374 3.104346666666659 0 0 0
305 2 31.175415491200397 3.599827045517104 4.66325339795438 0 0 0
306 1 32.734186307146516 4.4997838006233675 3.1043466666666637 0 0 0
307 1 35.85172793903885 4.499783800623513 3.1043466666666886 0 0 0
308 2 34.29295712309263 3.5998270455172046 4.663253397954406 0 0 0
309 1 38.96926957093112 4.4997838006234145 3.1043466666666943 0 0 0
310 2 37.410498754984914 3.5998270455171353 4.663253397954287 0 0 0
97 2 1.558769988222657 6.299697309106031 4.663253397954287 0 0 0
98 2 4.676311620115922 6.299697309106006 4.663253397954014 0 0 0
99 1 3.1175408041704475 7.1996540642119 3.104346666666397 0 0 0
100 1 6.2350824360620045 7.199654064212484 3.1043466666667485 0 0 0
101 2 7.793853252007928 6.299697309106104 4.663253397954383 0 0 0
102 1 9.352624067954087 7.199654064212309 3.104346666666667 0 0 0
103 2 10.911394883900103 6.299697309106184 4.6632533979543025 0 0 0
104 1 12.470165699846456 7.199654064212338 3.104346666666631 0 0 0
105 2 14.028936515792521 6.299697309106193 4.6632533979543185 0 0 0
106 1 15.587707331738974 7.1996540642122735 3.104346666666648 0 0 0
107 2 17.14647814768504 6.299697309106164 4.663253397954203 0 0 0
108 2 20.264019779577502 6.299697309106173 4.663253397954239 0 0 0
109 1 18.705248963631018 7.199654064212383 3.1043466666667046 0 0 0
110 1 21.82279059552303 7.199654064212314 3.1043466666666903 0 0 0
111 2 23.381561411469725 6.299697309106128 4.6632533979544455 0 0 0
112 1 24.940332227415702 7.19965406421234 3.1043466666666344 0 0 0
311 2 26.499103043361842 6.29969730910616 4.663253397954396 0 0 0
312 1 28.057873859308284 7.1996540642124005 3.104346666666698 0 0 0
313 2 29.616644675254225 6.299697309106229 4.663253397954208 0 0 0
314 1 31.17541549120016 7.199654064212345 3.1043466666666397 0 0 0
315 2 32.73418630714644 6.29969730910617 4.663253397954391 0 0 0
316 2 35.85172793903879 6.299697309106101 4.663253397954348 0 0 0
317 1 34.292957123092535 7.199654064212398 3.1043466666666895 0 0 0
318 1 37.410498754985014 7.199654064212416 3.1043466666666473 0 0 0
319 2 38.969269570931196 6.299697309106239 4.663253397954178 0 0 0
113 1 1.5587699882240802 9.899524327802098 3.1043466666669723 0 0 0
114 1 4.676311620115439 9.899524327801464 3.104346666666609 0 0 0
115 2 3.1175408041693173 8.99956757269528 4.6632533979541 0 0 0
116 1 7.793853252007956 9.89952432780146 3.1043466666666775 0 0 0
117 2 6.2350824360621 8.999567572695039 4.66325339795449 0 0 0
118 2 9.352624067954004 8.999567572695119 4.663253397954342 0 0 0
119 1 10.911394883900059 9.899524327801421 3.1043466666667205 0 0 0
120 2 12.470165699846357 8.999567572695122 4.66325339795438 0 0 0
121 1 14.028936515792767 9.899524327801252 3.1043466666666775 0 0 0
122 2 15.587707331738786 8.999567572695181 4.663253397954299 0 0 0
123 1 17.14647814768499 9.899524327801252 3.10434666666666 0 0 0
124 1 20.26401977957738 9.899524327801464 3.104346666666647 0 0 0
125 2 18.705248963631146 8.999567572695092 4.663253397954336 0 0 0
126 1 23.38156141146939 9.899524327801455 3.104346666666691 0 0 0
127 2 21.822790595523557 8.999567572695135 4.663253397954303 0 0 0
128 2 24.940332227415862 8.999567572695122 4.663253397954408 0 0 0
320 1 26.499103043361824 9.899524327801403 3.1043466666666686 0 0 0
321 2 28.057873859308064 8.999567572695051 4.6632533979543815 0 0 0
322 1 29.616644675254268 9.899524327801384 3.1043466666666553 0 0 0
323 2 31.17541549120035 8.999567572695135 4.663253397954368 0 0 0
324 1 32.73418630714654 9.8995243278013 3.104346666666668 0 0 0
325 1 35.85172793903889 9.899524327801478 3.1043466666666735 0 0 0
326 2 34.29295712309265 8.999567572695126 4.663253397954335 0 0 0
327 1 38.96926957093112 9.899524327801329 3.1043466666666495 0 0 0
328 2 37.41049875498499 8.999567572695039 4.663253397954304 0 0 0
129 2 1.5587699882223656 11.699437836284089 4.663253397953688 0 0 0
130 2 4.676311620115854 11.699437836284288 4.663253397954353 0 0 0
131 1 3.117540804170265 12.599394591389897 3.1043466666667334 0 0 0
132 1 6.235082436062073 12.599394591390528 3.1043466666667223 0 0 0
133 2 7.793853252007857 11.69943783628411 4.663253397954329 0 0 0
134 1 9.352624067953885 12.599394591390373 3.1043466666666513 0 0 0
135 2 10.911394883900142 11.699437836284021 4.663253397954324 0 0 0
136 1 12.470165699846321 12.599394591390384 3.104346666666635 0 0 0
137 2 14.028936515792532 11.699437836284055 4.6632533979543975 0 0 0
138 1 15.587707331738985 12.599394591390396 3.1043466666666664 0 0 0
139 2 17.146478147685002 11.699437836284082 4.663253397954338 0 0 0
140 2 20.26401977957736 11.699437836284078 4.663253397954206 0 0 0
141 1 18.705248963631274 12.599394591390347 3.104346666666685 0 0 0
142 1 21.822790595523376 12.59939459139003 3.1043466666666997 0 0 0
143 2 23.381561411469622 11.699437836284078 4.663253397954286 0 0 0
144 1 24.94033222741575 12.599394591390068 3.1043466666666286 0 0 0
329 2 26.49910304336179 11.699437836284034 4.663253397954366 0 0 0
330 1 28.05787385930827 12.599394591390347 3.1043466666666943 0 0 0
331 2 29.616644675254225 11.699437836284119 4.6632533979541835 0 0 0
332 1 31.17541549119997 12.59939459139027 3.1043466666666664 0 0 0
333 2 32.73418630714644 11.699437836284055 4.663253397954446 0 0 0
334 2 35.85172793903872 11.699437836283993 4.663253397954252 0 0 0
335 1 34.292957123092734 12.599394591390343 3.10434666666666 0 0 0
336 1 37.410498754984886 12.599394591390553 3.1043466666666792 0 0 0
337 2 38.96926957093123 11.699437836284117 4.663253397954237 0 0 0
145 1 1.558769988223288 15.29926485497903 3.10434666666649 0 0 0
146 1 4.676311620115151 15.299264854979386 3.1043466666668054 0 0 0
147 2 3.1175408041693173 14.39930809987348 4.663253397954143 0 0 0
148 1 7.793853252007953 15.299264854979018 3.1043466666666353 0 0 0
149 2 6.235082436062017 14.399308099873057 4.663253397954424 0 0 0
150 2 9.35262406795391 14.399308099873076 4.66325339795429 0 0 0
151 1 10.911394883900115 15.299264854979258 3.1043466666666775 0 0 0
152 2 12.47016569984639 14.399308099873014 4.663253397954338 0 0 0
153 1 14.028936515792724 15.299264854979176 3.104346666666704 0 0 0
154 2 15.587707331738775 14.399308099873041 4.663253397954294 0 0 0
155 1 17.14647814768492 15.299264854979368 3.104346666666651 0 0 0
156 1 20.264019779577417 15.299264854979256 3.1043466666666744 0 0 0
157 2 18.705248963631167 14.399308099872979 4.6632533979543584 0 0 0
158 1 23.38156141146935 15.299264854979112 3.1043466666666566 0 0 0
159 2 21.82279059552351 14.39930809987318 4.663253397954338 0 0 0
160 2 24.94033222741582 14.399308099873116 4.663253397954424 0 0 0
338 1 26.499103043361917 15.299264854979183 3.104346666666721 0 0 0
339 2 28.05787385930805 14.399308099873 4.66325339795433 0 0 0
340 1 29.616644675254268 15.299264854979167 3.1043466666666344 0 0 0
341 2 31.175415491200358 14.399308099873075 4.663253397954388 0 0 0
342 1 32.73418630714647 15.299264854979263 3.1043466666667117 0 0 0
343 1 35.85172793903886 15.299264854979215 3.104346666666661 0 0 0
344 2 34.29295712309247 14.399308099873013 4.66325339795437 0 0 0
345 1 38.96926957093078 15.299264854979345 3.104346666666679 0 0 0
346 2 37.410498754984985 14.399308099872979 4.663253397954173 0 0 0
161 2 1.5587699882246657 17.099178363461164 4.663253397956292 0 0 0
162 2 4.676311620115466 17.099178363461984 4.663253397954391 0 0 0
163 1 3.117540804170897 17.999135118567622 3.104346666666853 0 0 0
164 1 6.23508243606198 17.999135118569058 3.104346666666593 0 0 0
165 2 7.793853252007764 17.099178363461927 4.663253397954643 0 0 0
166 1 9.352624067954057 17.999135118568642 3.104346666666644 0 0 0
167 2 10.911394883900003 17.099178363461917 4.6632533979543815 0 0 0
168 1 12.470165699846376 17.999135118568617 3.1043466666666664 0 0 0
169 2 14.028936515792566 17.09917836346191 4.6632533979545014 0 0 0
170 1 15.587707331738965 17.99913511856869 3.104346666666689 0 0 0
171 2 17.14647814768502 17.09917836346184 4.663253397954394 0 0 0
172 2 20.264019779577463 17.099178363461895 4.663253397954401 0 0 0
173 1 18.705248963631142 17.99913511856887 3.104346666666704 0 0 0
174 1 21.822790595523024 17.999135118568674 3.104346666666645 0 0 0
175 2 23.38156141146966 17.099178363461853 4.6632533979546436 0 0 0
176 1 24.940332227415706 17.999135118568685 3.104346666666645 0 0 0
347 2 26.499103043361817 17.099178363461853 4.663253397954541 0 0 0
348 1 28.057873859308234 17.999135118568667 3.104346666666642 0 0 0
349 2 29.61664467525419 17.09917836346195 4.663253397954397 0 0 0
350 1 31.175415491200184 17.99913511856863 3.10434666666669 0 0 0
351 2 32.73418630714645 17.099178363461828 4.663253397954595 0 0 0
352 2 35.851727939038646 17.099178363461917 4.663253397954465 0 0 0
353 1 34.292957123092876 17.99913511856861 3.1043466666666717 0 0 0
354 1 37.410498754985184 17.9991351185688 3.104346666666668 0 0 0
355 2 38.9692695709311 17.099178363461828 4.663253397954281 0 0 0
177 1 1.5587699882223167 20.69900538215928 3.104346666666552 0 0 0
178 1 4.676311620115642 20.699005382157452 3.1043466666667365 0 0 0
179 2 3.1175408041696 19.79904862705078 4.66325339795489 0 0 0
180 1 7.793853252007797 20.6990053821576 3.1043466666666593 0 0 0
181 2 6.2350824360618065 19.7990486270506 4.663253397954331 0 0 0
182 2 9.3526240679539 19.799048627050748 4.663253397954299 0 0 0
183 1 10.911394883900075 20.699005382157306 3.104346666666673 0 0 0
184 2 12.470165699846346 19.799048627050777 4.663253397954228 0 0 0
185 1 14.028936515792534 20.69900538215732 3.1043466666666855 0 0 0
186 2 15.587707331738857 19.799048627050762 4.6632533979542155 0 0 0
187 1 17.146478147684924 20.699005382157285 3.1043466666666415 0 0 0
188 1 20.264019779577335 20.69900538215736 3.1043466666666966 0 0 0
189 2 18.705248963631167 19.799048627050666 4.663253397954236 0 0 0
190 1 23.381561411469214 20.69900538215721 3.1043466666666886 0 0 0
191 2 21.822790595523625 19.79904862705085 4.6632533979541515 0 0 0
192 2 24.940332227415848 19.799048627050723 4.663253397954313 0 0 0
356 1 26.499103043361917 20.69900538215721 3.1043466666666886 0 0 0
357 2 28.057873859308028 19.79904862705079 4.663253397954253 0 0 0
358 1 29.616644675254197 20.699005382157264 3.1043466666666717 0 0 0
359 2 31.17541549120036 19.79904862705071 4.663253397954283 0 0 0
360 1 32.734186307146494 20.699005382157335 3.1043466666666886 0 0 0
361 1 35.851727939038796 20.699005382157285 3.1043466666666655 0 0 0
362 2 34.292957123092506 19.799048627050762 4.663253397954326 0 0 0
363 1 38.969269570930976 20.69900538215736 3.1043466666667174 0 0 0
364 2 37.41049875498491 19.79904862705079 4.6632533979541195 0 0 0
217 2 1.558769988222728 22.498918890639242 4.663253397954209 0 0 0
218 2 4.676311620115744 22.49891889063972 4.663253397954279 0 0 0
219 1 3.1175408041700425 23.398875645746156 3.1043466666663804 0 0 0
220 1 6.2350824360617345 23.39887564574648 3.104346666666763 0 0 0
221 2 7.793853252007836 22.498918890639697 4.663253397954327 0 0 0
222 1 9.352624067953927 23.398875645746287 3.1043466666667068 0 0 0
223 2 10.911394883900066 22.498918890639885 4.663253397954297 0 0 0
224 1 12.470165699846296 23.39887564574625 3.1043466666666344 0 0 0
225 2 14.028936515792587 22.498918890639885 4.663253397954332 0 0 0
226 1 15.587707331738939 23.398875645746273 3.1043466666667046 0 0 0
227 2 17.14647814768499 22.498918890639874 4.663253397954285 0 0 0
228 2 20.264019779577424 22.498918890639914 4.663253397954171 0 0 0
229 1 18.705248963631206 23.398875645746287 3.1043466666666575 0 0 0
230 1 21.822790595523163 23.398875645745985 3.104346666666686 0 0 0
231 2 23.38156141146964 22.498918890639942 4.663253397954394 0 0 0
232 1 24.94033222741568 23.398875645746273 3.104346666666612 0 0 0
379 2 26.499103043361767 22.49891889063986 4.663253397954439 0 0 0
380 1 28.057873859308337 23.39887564574626 3.1043466666667037 0 0 0
381 2 29.61664467525419 22.498918890639914 4.663253397954145 0 0 0
382 1 31.17541549119987 23.398875645746205 3.104346666666654 0 0 0
383 2 32.734186307146516 22.49891889063986 4.663253397954374 0 0 0
384 2 35.85172793903867 22.498918890639914 4.66325339795429 0 0 0
385 1 34.292957123092734 23.39887564574589 3.1043466666666544 0 0 0
386 1 37.410498754985014 23.398875645746273 3.104346666666623 0 0 0
387 2 38.96926957093114 22.49891889063989 4.663253397954171 0 0 0
233 1 1.5587699882238562 26.098745909335538 3.1043466666667774 0 0 0
234 1 4.676311620115808 26.098745909335477 3.1043466666666966 0 0 0
235 2 3.1175408041697 25.198789154228873 4.6632533979542385 0 0 0
236 1 7.793853252007811 26.098745909335634 3.104346666666669 0 0 0
237 2 6.235082436062077 25.19878915422849 4.663253397954411 0 0 0
238 2 9.352624067954025 25.19878915422868 4.6632533979543975 0 0 0
239 1 10.911394883899982 26.0987459093353 3.1043466666666455 0 0 0
240 2 12.47016569984629 25.198789154228734 4.663253397954439 0 0 0
241 1 14.02893651579281 26.098745909335477 3.1043466666666704 0 0 0
242 2 15.587707331738764 25.198789154228802 4.663253397954371 0 0 0
243 1 17.14647814768491 26.09874590933564 3.104346666666669 0 0 0
244 1 20.26401977957742 26.098745909335566 3.104346666666697 0 0 0
245 2 18.705248963631195 25.198789154228695 4.663253397954446 0 0 0
246 1 23.381561411469185 26.09874590933541 3.1043466666666815 0 0 0
247 2 21.822790595523585 25.198789154228912 4.663253397954332 0 0 0
248 2 24.940332227415904 25.198789154228763 4.663253397954437 0 0 0
388 1 26.499103043361814 26.0987459093353 3.1043466666666997 0 0 0
389 2 28.05787385930801 25.198789154228816 4.66325339795438 0 0 0
390 1 29.61664467525439 26.098745909335022 3.1043466666666664 0 0 0
391 2 31.175415491200322 25.198789154228884 4.6632533979542785 0 0 0
392 1 32.73418630714625 26.09874590933538 3.1043466666666806 0 0 0
393 1 35.851727939038966 26.098745909335683 3.1043466666667197 0 0 0
394 2 34.292957123092606 25.198789154228844 4.663253397954588 0 0 0
395 1 38.969269570931075 26.098745909335573 3.104346666666676 0 0 0
396 2 37.410498754984886 25.198789154228706 4.663253397954351 0 0 0
249 2 1.5587699882225985 27.898659417817953 4.663253397954101 0 0 0
250 2 4.6763116201159995 27.898659417817836 4.663253397954254 0 0 0
251 2 7.793853252007891 27.89865941781763 4.663253397954129 0 0 0
252 2 10.911394883900085 27.89865941781768 4.663253397954309 0 0 0
253 2 14.028936515792575 27.89865941781763 4.6632533979543 0 0 0
254 2 17.14647814768492 27.898659417817555 4.663253397954268 0 0 0
255 2 20.264019779577424 27.898659417817637 4.663253397954257 0 0 0
256 2 23.38156141146964 27.89865941781768 4.663253397954404 0 0 0
397 2 26.499103043361888 27.898659417817594 4.663253397954518 0 0 0
398 2 29.616644675254207 27.898659417817836 4.663253397954353 0 0 0
399 2 32.734186307146395 27.898659417817548 4.663253397954458 0 0 0
400 2 35.85172793903876 27.898659417817566 4.663253397954323 0 0 0
401 2 38.969269570931175 27.898659417817726 4.66325339795414 0 0 0
402 3 3.1175408041694292 30.59852968140696 1.5454399353793864 0 0 0
403 3 6.23508243606193 30.598529681406834 1.5454399353790298 0 0 0
404 3 9.352624067953974 30.598529681406834 1.5454399353791772 0 0 0
405 3 12.470165699846365 30.598529681406674 1.5454399353791533 0 0 0
406 3 15.587707331738764 30.598529681406806 1.545439935379206 0 0 0
407 3 18.705248963631167 30.59852968140662 1.5454399353792918 0 0 0
408 3 21.822790595523585 30.598529681406834 1.5454399353792598 0 0 0
409 3 24.94033222741585 30.59852968140662 1.5454399353791384 0 0 0
650 3 28.057873859308017 30.598529681406664 1.5454399353792274 0 0 0
651 3 31.17541549120036 30.598529681406717 1.545439935379167 0 0 0
652 3 34.29295712309266 30.598529681406614 1.5454399353791402 0 0 0
653 3 37.41049875498496 30.598529681406745 1.545439935379135 0 0 0
410 3 1.5587699882238113 33.298399944995104 1.5454399353783055 0 0 0
411 3 4.676311620115652 33.29839994499604 1.5454399353792472 0 0 0
412 3 7.793853252007887 33.298399944996 1.545439935379102 0 0 0
413 3 10.911394883900048 33.298399944996085 1.5454399353792734 0 0 0
414 3 14.028936515792582 33.29839994499603 1.5454399353791926 0 0 0
415 3 17.14647814768494 33.298399944996 1.5454399353792796 0 0 0
416 3 20.264019779577424 33.29839994499612 1.5454399353792356 0 0 0
417 3 23.38156141146964 33.29839994499597 1.5454399353791035 0 0 0
654 3 26.499103043361753 33.29839994499604 1.5454399353792034 0 0 0
655 3 29.616644675254157 33.29839994499597 1.5454399353792962 0 0 0
656 3 32.73418630714644 33.298399944995865 1.5454399353791868 0 0 0
657 3 35.851727939038796 33.298399944995765 1.5454399353790929 0 0 0
658 3 38.96926957093122 33.298399944995865 1.5454399353790798 0 0 0
418 3 3.117540804170039 35.99827020858457 1.5454399353785948 0 0 0
419 3 6.235082436061774 35.99827020858485 1.5454399353789587 0 0 0
420 3 9.352624067953895 35.998270208584955 1.5454399353788841 0 0 0
421 3 12.470165699846357 35.998270208584955 1.5454399353787387 0 0 0
422 3 15.587707331738768 35.998270208584984 1.5454399353788932 0 0 0
423 3 18.705248963631217 35.99827020858485 1.5454399353788946 0 0 0
424 3 21.822790595523443 35.998270208584955 1.5454399353789106 0 0 0
425 3 24.940332227415887 35.9982702085849 1.545439935378799 0 0 0
659 3 28.057873859308092 35.998270208584835 1.5454399353788464 0 0 0
660 3 31.17541549120028 35.99827020858485 1.5454399353787898 0 0 0
661 3 34.292957123092606 35.99827020858472 1.5454399353788872 0 0 0
662 3 37.410498754984935 35.9982702085846 1.5454399353790162 0 0 0
426 3 1.5587699882230213 38.69814047217373 1.545439935379719 0 0 0
427 3 4.6763116201162465 38.69814047217375 1.5454399353790962 0 0 0
428 3 7.793853252007799 38.698140472173804 1.545439935379021 0 0 0
429 3 10.911394883900021 38.69814047217391 1.5454399353791541 0 0 0