LAMMPS data file via write_data, version 2 Aug 2023, timestep = 250, units = metal

18576 atoms
3 atom types

0 623.5072401612118 xlo xhi
0 86.39570246895218 ylo yhi
0 50 zlo zhi
0 0 0 xy xz yz

Masses

1 95.94
2 32.065
3 32.065

Atoms # atomic

1 3 1.5587672726812971 0.8999552513327386 1.5454394372272282 0 0 0
2 3 4.676303473487502 0.8999552513326932 1.545439437227224 0 0 0
3 3 7.793839674293603 0.8999552513326988 1.5454394372272178 0 0 0
4 3 10.91137587509979 0.8999552513327129 1.5454394372272253 0 0 0
5 3 14.028912075905975 0.899955251332715 1.5454394372272173 0 0 0
6 3 17.146448276712107 0.8999552513327007 1.54543943722721 0 0 0
7 3 20.2639844775182 0.8999552513326957 1.545439437227216 0 0 0
8 3 23.38152067832426 0.8999552513326812 1.5454394372272224 0 0 0
385 3 26.49905687913033 0.8999552513326842 1.5454394372272249 0 0 0
386 3 29.616593079936383 0.899955251332688 1.5454394372272167 0 0 0
387 3 32.73412928074242 0.899955251332694 1.5454394372272113 0 0 0
9 3 3.11753537308439 3.599820953487519 1.5454394372272373 0 0 0
10 3 6.2350715738906235 3.5998209534874523 1.5454394372272102 0 0 0
11 3 9.35260777469671 3.5998209534874825 1.545439437227219 0 0 0
12 3 12.470143975502872 3.5998209534874848 1.5454394372272247 0 0 0
13 3 15.587680176309036 3.599820953487483 1.545439437227219 0 0 0
14 3 18.705216377115146 3.5998209534874737 1.5454394372272162 0 0 0
15 3 21.822752577921232 3.5998209534874737 1.5454394372272224 0 0 0
16 3 24.94028877872729 3.5998209534874697 1.5454394372272215 0 0 0
388 3 28.057824979533365 3.5998209534874674 1.5454394372272153 0 0 0
389 3 31.175361180339422 3.5998209534874674 1.5454394372272175 0 0 0
390 3 34.29289738114546 3.5998209534874763 1.545439437227221 0 0 0
17 3 1.5587672726813266 6.299686655642169 1.5454394372272078 0 0 0
18 3 4.676303473487482 6.299686655642263 1.5454394372272282 0 0 0
19 3 7.793839674293608 6.299686655642256 1.545439437227213 0 0 0
20 3 10.911375875099782 6.299686655642272 1.5454394372272202 0 0 0
21 3 14.028912075905977 6.29968665564226 1.5454394372272175 0 0 0
22 3 17.14644827671211 6.299686655642262 1.5454394372272156 0 0 0
23 3 20.263984477518186 6.299686655642265 1.5454394372272113 0 0 0
24 3 23.381520678324268 6.299686655642256 1.5454394372272167 0 0 0
391 3 26.499056879130325 6.299686655642262 1.5454394372272142 0 0 0
392 3 29.61659307993637 6.299686655642259 1.545439437227215 0 0 0
393 3 32.73412928074242 6.299686655642255 1.5454394372272144 0 0 0
25 3 3.1175353730844932 8.999552357796995 1.5454394372272156 0 0 0
26 3 6.235071573890619 8.999552357796992 1.5454394372271882 0 0 0
27 3 9.352607774696695 8.999552357797029 1.5454394372272184 0 0 0
28 3 12.470143975502875 8.999552357797032 1.5454394372272193 0 0 0
29 3 15.587680176309037 8.999552357797024 1.5454394372272147 0 0 0
30 3 18.705216377115146 8.999552357797025 1.5454394372272142 0 0 0
31 3 21.822752577921232 8.999552357797025 1.5454394372272184 0 0 0
32 3 24.9402887787273 8.999552357797025 1.545439437227218 0 0 0
394 3 28.057824979533358 8.99955235779702 1.5454394372272142 0 0 0
395 3 31.17536118033941 8.999552357797025 1.5454394372272156 0 0 0
396 3 34.29289738114547 8.999552357797022 1.545439437227205 0 0 0
33 3 1.5587672726814668 11.699418059951755 1.5454394372271685 0 0 0
34 3 4.6763034734875495 11.699418059951748 1.5454394372271782 0 0 0
35 3 7.793839674293624 11.699418059951746 1.5454394372272073 0 0 0
36 3 10.91137587509979 11.699418059951778 1.5454394372272269 0 0 0
37 3 14.028912075905986 11.69941805995178 1.5454394372272173 0 0 0
38 3 17.14644827671211 11.699418059951782 1.5454394372272129 0 0 0
39 3 20.263984477518182 11.69941805995178 1.545439437227215 0 0 0
40 3 23.38152067832425 11.69941805995178 1.545439437227218 0 0 0
397 3 26.49905687913033 11.699418059951778 1.5454394372272129 0 0 0
398 3 29.616593079936386 11.699418059951778 1.5454394372272122 0 0 0
399 3 32.734129280742415 11.699418059951778 1.5454394372272091 0 0 0
41 3 3.1175353730845914 14.399283762106533 1.5454394372271558 0 0 0
42 3 6.235071573890698 14.39928376210649 1.5454394372271896 0 0 0
43 3 9.352607774696738 14.399283762106519 1.5454394372272193 0 0 0
44 3 12.470143975502886 14.399283762106533 1.5454394372272184 0 0 0
45 3 15.587680176309046 14.399283762106528 1.545439437227216 0 0 0
46 3 18.705216377115146 14.399283762106526 1.5454394372272113 0 0 0
47 3 21.822752577921232 14.399283762106533 1.5454394372272136 0 0 0
48 3 24.940288778727286 14.399283762106531 1.5454394372272147 0 0 0
400 3 28.057824979533358 14.399283762106531 1.545439437227215 0 0 0
401 3 31.175361180339408 14.399283762106531 1.545439437227215 0 0 0
402 3 34.29289738114547 14.399283762106528 1.545439437227209 0 0 0
49 3 1.5587672726814519 17.09914946426135 1.5454394372271594 0 0 0
50 3 4.676303473487586 17.099149464261295 1.5454394372271953 0 0 0
51 3 7.793839674293635 17.099149464261277 1.5454394372272242 0 0 0
52 3 10.911375875099809 17.099149464261288 1.5454394372272235 0 0 0
53 3 14.028912075905987 17.099149464261288 1.5454394372272118 0 0 0
54 3 17.146448276712107 17.09914946426128 1.5454394372272084 0 0 0
55 3 20.263984477518182 17.09914946426129 1.5454394372272091 0 0 0
56 3 23.38152067832425 17.099149464261277 1.5454394372272107 0 0 0
403 3 26.49905687913033 17.09914946426128 1.5454394372272102 0 0 0
404 3 29.616593079936386 17.099149464261277 1.5454394372272118 0 0 0
405 3 32.73412928074244 17.099149464261284 1.5454394372272122 0 0 0
57 3 3.1175353730844746 19.799015166416066 1.5454394372271896 0 0 0
58 3 6.235071573890662 19.799015166416027 1.5454394372272144 0 0 0
59 3 9.352607774696727 19.79901516641605 1.5454394372272202 0 0 0
60 3 12.470143975502898 19.799015166416055 1.5454394372272184 0 0 0
61 3 15.587680176309044 19.799015166416037 1.5454394372272162 0 0 0
62 3 18.705216377115146 19.79901516641603 1.5454394372272138 0 0 0
63 3 21.82275257792124 19.79901516641604 1.5454394372272147 0 0 0
64 3 24.940288778727297 19.79901516641603 1.5454394372272153 0 0 0
406 3 28.057824979533365 19.79901516641603 1.5454394372272087 0 0 0
407 3 31.175361180339408 19.799015166416023 1.5454394372272096 0 0 0
408 3 34.29289738114546 19.799015166416037 1.545439437227217 0 0 0
65 3 1.5587672726812318 22.498880868570826 1.5454394372272326 0 0 0
66 3 4.67630347348753 22.4988808685708 1.5454394372272018 0 0 0
67 3 7.793839674293614 22.4988808685708 1.5454394372272178 0 0 0
68 3 10.91137587509979 22.49888086857082 1.5454394372272204 0 0 0
69 3 14.028912075905986 22.498880868570787 1.545439437227215 0 0 0
70 3 17.14644827671211 22.498880868570787 1.5454394372272133 0 0 0
71 3 20.263984477518186 22.498880868570787 1.5454394372272091 0 0 0
72 3 23.381520678324275 22.498880868570787 1.5454394372272147 0 0 0
409 3 26.49905687913032 22.498880868570787 1.5454394372272113 0 0 0
410 3 29.616593079936386 22.498880868570787 1.5454394372272116 0 0 0
411 3 32.734129280742394 22.498880868570787 1.5454394372272153 0 0 0
73 3 3.117535373084367 25.198746570725593 1.5454394372272178 0 0 0
74 3 6.235071573890629 25.198746570725525 1.5454394372272038 0 0 0
75 3 9.352607774696706 25.198746570725564 1.545439437227216 0 0 0
76 3 12.470143975502875 25.19874657072555 1.5454394372272215 0 0 0
77 3 15.587680176309037 25.198746570725543 1.5454394372272162 0 0 0
78 3 18.705216377115146 25.198746570725543 1.5454394372272149 0 0 0
79 3 21.822752577921225 25.198746570725532 1.545439437227216 0 0 0
80 3 24.94028877872729 25.198746570725543 1.5454394372272116 0 0 0
412 3 28.057824979533365 25.198746570725525 1.5454394372272107 0 0 0
413 3 31.175361180339426 25.198746570725525 1.5454394372272158 0 0 0
414 3 34.29289738114548 25.198746570725525 1.545439437227214 0 0 0
81 3 1.5587672726812398 27.89861227288033 1.5454394372272189 0 0 0
82 3 4.676303473487484 27.89861227288029 1.5454394372272147 0 0 0
83 3 7.793839674293624 27.89861227288029 1.5454394372272118 0 0 0
84 3 10.911375875099788 27.898612272880303 1.5454394372272258 0 0 0
85 3 14.028912075905975 27.89861227288029 1.5454394372272193 0 0 0
86 3 17.146448276712107 27.898612272880303 1.5454394372272169 0 0 0
87 3 20.26398447751818 27.898612272880303 1.5454394372272124 0 0 0
88 3 23.38152067832425 27.898612272880303 1.5454394372272147 0 0 0
415 3 26.49905687913033 27.89861227288029 1.5454394372272113 0 0 0
416 3 29.616593079936376 27.898612272880303 1.5454394372272124 0 0 0
417 3 32.73412928074242 27.898612272880303 1.545439437227212 0 0 0
257 3 3.1175353730844595 30.598477975035077 1.545439437227229 0 0 0
258 3 6.2350715738906555 30.598477975035014 1.5454394372272022 0 0 0
259 3 9.352607774696718 30.598477975035035 1.5454394372272102 0 0 0
260 3 12.470143975502886 30.598477975035042 1.545439437227214 0 0 0
261 3 15.587680176309043 30.598477975035035 1.5454394372272167 0 0 0
262 3 18.705216377115146 30.598477975035035 1.5454394372272084 0 0 0
263 3 21.822752577921225 30.598477975035042 1.5454394372272129 0 0 0
264 3 24.940288778727297 30.59847797503502 1.5454394372272122 0 0 0
481 3 28.05782497953333 30.598477975035035 1.5454394372272109 0 0 0
482 3 31.175361180339408 30.598477975035035 1.5454394372272116 0 0 0
483 3 34.29289738114547 30.598477975035028 1.545439437227203 0 0 0
265 3 1.558767272681294 33.29834367718984 1.545439437227274 0 0 0
266 3 4.676303473487567 33.2983436771898 1.5454394372272167 0 0 0
267 3 7.793839674293605 33.29834367718976 1.5454394372272227 0 0 0
268 3 10.911375875099786 33.298343677189784 1.5454394372272184 0 0 0
269 3 14.028912075905975 33.298343677189784 1.5454394372272149 0 0 0
270 3 17.146448276712114 33.298343677189784 1.5454394372272098 0 0 0
271 3 20.26398447751817 33.2983436771898 1.5454394372272116 0 0 0
272 3 23.38152067832426 33.298343677189784 1.5454394372272084 0 0 0
484 3 26.499056879130325 33.298343677189784 1.5454394372272109 0 0 0
485 3 29.61659307993636 33.298343677189784 1.5454394372272113 0 0 0
486 3 32.734129280742415 33.29834367718976 1.5454394372272133 0 0 0
273 3 3.1175353730845043 35.99820937934458 1.54543943722722 0 0 0
274 3 6.235071573890651 35.998209379344516 1.5454394372272107 0 0 0
275 3 9.352607774696713 35.99820937934453 1.5454394372272202 0 0 0
276 3 12.470143975502895 35.99820937934455 1.5454394372272209 0 0 0
277 3 15.587680176309046 35.998209379344516 1.5454394372272113 0 0 0
278 3 18.705216377115146 35.998209379344544 1.5454394372272133 0 0 0
279 3 21.822752577921232 35.99820937934453 1.5454394372272178 0 0 0
280 3 24.940288778727286 35.99820937934453 1.545439437227213 0 0 0
487 3 28.057824979533347 35.99820937934454 1.5454394372272144 0 0 0
488 3 31.175361180339426 35.998209379344544 1.545439437227214 0 0 0
489 3 34.29289738114547 35.99820937934454 1.5454394372272107 0 0 0
281 3 1.5587672726814374 38.698075081499304 1.545439437227216 0 0 0
282 3 4.676303473487591 38.6980750814993 1.5454394372272044 0 0 0
283 3 7.793839674293613 38.6980750814993 1.5454394372272184 0 0 0
284 3 10.911375875099793 38.6980750814993 1.5454394372272242 0 0 0
285 3 14.028912075905986 38.69807508149929 1.5454394372272184 0 0 0
286 3 17.146448276712107 38.6980750814993 1.5454394372272107 0 0 0
287 3 20.263984477518186 38.6980750814993 1.5454394372272056 0 0 0
288 3 23.38152067832427 38.6980750814993 1.5454394372272084 0 0 0
490 3 26.499056879130325 38.69807508149929 1.5454394372272051 0 0 0
491 3 29.61659307993637 38.698075081499304 1.5454394372272082 0 0 0
492 3 32.73412928074243 38.69807508149929 1.5454394372272138 0 0 0
289 3 3.1175353730844266 41.397940783654064 1.545439437227223 0 0 0
290 3 6.235071573890631 41.39794078365405 1.5454394372271998 0 0 0
291 3 9.352607774696715 41.397940783654064 1.5454394372272153 0 0 0
292 3 12.470143975502896 41.39794078365405 1.5454394372272167 0 0 0
293 3 15.587680176309036 41.39794078365405 1.5454394372272129 0 0 0
294 3 18.705216377115136 41.397940783654036 1.5454394372272078 0 0 0
295 3 21.822752577921225 41.39794078365405 1.5454394372272129 0 0 0
296 3 24.940288778727297 41.39794078365405 1.545439437227216 0 0 0
493 3 28.057824979533343 41.397940783654036 1.545439437227213 0 0 0
494 3 31.175361180339408 41.397940783654064 1.5454394372272107 0 0 0
495 3 34.29289738114547 41.397940783654036 1.545439437227209 0 0 0
89 2 1.5587672726812443 0.899955251332746 4.663253896106132 0 0 0
90 2 4.676303473487504 0.8999552513327095 4.663253896106119 0 0 0
91 1 3.1175353730844093 1.7999105163128475 3.104346666666662 0 0 0
92 1 6.235071573890562 1.7999105163128406 3.1043466666666784 0 0 0
93 2 7.793839674293609 0.8999552513327014 4.663253896106128 0 0 0
94 1 9.352607774696688 1.7999105163128406 3.1043466666666735 0 0 0
95 2 10.91137587509979 0.8999552513327135 4.663253896106123 0 0 0
96 1 12.470143975502886 1.799910516312844 3.104346666666676 0 0 0
97 2 14.028912075905982 0.8999552513327146 4.663253896106127 0 0 0
98 1 15.587680176309052 1.7999105163128486 3.1043466666666717 0 0 0
99 2 17.146448276712107 0.8999552513326945 4.663253896106132 0 0 0
100 2 20.263984477518182 0.8999552513326992 4.66325389610613 0 0 0
101 1 18.70521637711515 1.799910516312844 3.1043466666666713 0 0 0
102 1 21.822752577921236 1.7999105163128455 3.104346666666679 0 0 0
103 2 23.381520678324275 0.8999552513326846 4.663253896106127 0 0 0
104 1 24.940288778727297 1.799910516312844 3.1043466666666726 0 0 0
418 2 26.49905687913033 0.8999552513326872 4.663253896106137 0 0 0
419 1 28.057824979533354 1.799910516312849 3.1043466666666752 0 0 0
420 2 29.616593079936383 0.8999552513326927 4.663253896106133 0 0 0
421 1 31.175361180339408 1.799910516312844 3.104346666666675 0 0 0
422 2 32.734129280742415 0.8999552513326892 4.6632538961061325 0 0 0
423 1 34.29289738114543 1.7999105163128586 3.104346666666671 0 0 0
105 1 1.558767272681163 4.499776218467535 3.1043466666666775 0 0 0
106 1 4.676303473487532 4.499776218467622 3.104346666666671 0 0 0
107 2 3.1175353730843915 3.5998209534875114 4.663253896106093 0 0 0
108 1 7.793839674293653 4.499776218467628 3.104346666666672 0 0 0
109 2 6.235071573890629 3.599820953487459 4.663253896106132 0 0 0
110 2 9.352607774696708 3.599820953487488 4.663253896106122 0 0 0
111 1 10.91137587509979 4.499776218467625 3.1043466666666717 0 0 0
112 2 12.470143975502884 3.5998209534874857 4.66325389610612 0 0 0
113 1 14.028912075905966 4.499776218467622 3.104346666666676 0 0 0
114 2 15.587680176309046 3.599820953487483 4.663253896106124 0 0 0
115 1 17.146448276712107 4.499776218467634 3.1043466666666713 0 0 0
116 1 20.2639844775182 4.499776218467635 3.1043466666666713 0 0 0
117 2 18.705216377115146 3.599820953487478 4.663253896106126 0 0 0
118 1 23.38152067832426 4.499776218467634 3.1043466666666744 0 0 0
119 2 21.822752577921232 3.599820953487477 4.6632538961061245 0 0 0
120 2 24.940288778727307 3.5998209534874746 4.663253896106125 0 0 0
424 1 26.499056879130325 4.499776218467634 3.104346666666672 0 0 0
425 2 28.057824979533365 3.5998209534874794 4.663253896106129 0 0 0
426 1 29.616593079936386 4.499776218467633 3.104346666666672 0 0 0
427 2 31.175361180339408 3.599820953487469 4.66325389610613 0 0 0
428 1 32.734129280742444 4.499776218467637 3.1043466666666752 0 0 0
429 2 34.29289738114547 3.5998209534874808 4.663253896106128 0 0 0
121 2 1.558767272681353 6.299686655642162 4.66325389610617 0 0 0
122 2 4.676303473487497 6.299686655642267 4.663253896106119 0 0 0
123 1 3.1175353730844115 7.1996419206223505 3.1043466666666735 0 0 0
124 1 6.235071573890554 7.1996419206223985 3.1043466666666677 0 0 0
125 2 7.793839674293603 6.299686655642262 4.663253896106122 0 0 0
126 1 9.35260777469669 7.199641920622397 3.104346666666673 0 0 0
127 2 10.911375875099788 6.299686655642269 4.663253896106118 0 0 0
128 1 12.470143975502886 7.199641920622392 3.1043466666666686 0 0 0
129 2 14.028912075905973 6.299686655642263 4.663253896106123 0 0 0
130 1 15.587680176309046 7.199641920622402 3.1043466666666717 0 0 0
131 2 17.146448276712107 6.299686655642262 4.66325389610613 0 0 0
132 2 20.263984477518182 6.299686655642262 4.663253896106126 0 0 0
133 1 18.70521637711515 7.199641920622412 3.1043466666666744 0 0 0
134 1 21.822752577921225 7.199641920622409 3.104346666666672 0 0 0
135 2 23.38152067832425 6.299686655642262 4.66325389610613 0 0 0
136 1 24.94028877872729 7.199641920622408 3.104346666666676 0 0 0
430 2 26.49905687913032 6.2996866556422555 4.663253896106133 0 0 0
431 1 28.057824979533347 7.199641920622409 3.1043466666666744 0 0 0
432 2 29.61659307993637 6.299686655642256 4.663253896106129 0 0 0
433 1 31.175361180339408 7.199641920622408 3.1043466666666735 0 0 0
434 2 32.73412928074243 6.29968665564226 4.663253896106131 0 0 0
435 1 34.29289738114545 7.199641920622416 3.104346666666672 0 0 0
137 1 1.558767272681415 9.899507622777147 3.104346666666638 0 0 0
138 1 4.676303473487566 9.899507622777133 3.1043466666666486 0 0 0
139 2 3.1175353730844995 8.999552357797029 4.663253896106106 0 0 0
140 1 7.793839674293634 9.89950762277714 3.1043466666666704 0 0 0
141 2 6.235071573890604 8.999552357796995 4.6632538961061245 0 0 0
142 2 9.352607774696693 8.999552357797029 4.663253896106128 0 0 0
143 1 10.911375875099786 9.899507622777145 3.1043466666666766 0 0 0
144 2 12.470143975502879 8.999552357797029 4.66325389610612 0 0 0
145 1 14.028912075905968 9.899507622777152 3.104346666666673 0 0 0
146 2 15.587680176309036 8.999552357797029 4.663253896106125 0 0 0
147 1 17.146448276712093 9.899507622777161 3.10434666666667 0 0 0
148 1 20.263984477518193 9.899507622777165 3.104346666666672 0 0 0
149 2 18.705216377115136 8.999552357797025 4.663253896106127 0 0 0
150 1 23.38152067832425 9.899507622777165 3.1043466666666757 0 0 0
151 2 21.822752577921232 8.999552357797024 4.663253896106126 0 0 0
152 2 24.9402887787273 8.999552357797025 4.6632538961061325 0 0 0
436 1 26.49905687913032 9.899507622777165 3.1043466666666744 0 0 0
437 2 28.057824979533358 8.99955235779702 4.663253896106136 0 0 0
438 1 29.616593079936376 9.899507622777165 3.1043466666666695 0 0 0
439 2 31.175361180339422 8.999552357797024 4.6632538961061245 0 0 0
440 1 32.73412928074244 9.899507622777161 3.1043466666666695 0 0 0
441 2 34.29289738114547 8.999552357797029 4.663253896106129 0 0 0
153 2 1.5587672726814314 11.699418059951773 4.66325389610611 0 0 0
154 2 4.676303473487533 11.699418059951745 4.663253896106089 0 0 0
155 1 3.1175353730845186 12.599373324931896 3.10434666666662 0 0 0
156 1 6.235071573890585 12.599373324931888 3.104346666666657 0 0 0
157 2 7.793839674293601 11.699418059951759 4.663253896106118 0 0 0
158 1 9.352607774696693 12.599373324931888 3.1043466666666752 0 0 0
159 2 10.911375875099793 11.699418059951789 4.663253896106121 0 0 0
160 1 12.470143975502895 12.5993733249319 3.104346666666669 0 0 0
161 2 14.028912075905984 11.699418059951782 4.6632538961061245 0 0 0
162 1 15.587680176309053 12.599373324931907 3.1043466666666704 0 0 0
163 2 17.146448276712103 11.699418059951775 4.66325389610613 0 0 0
164 2 20.26398447751818 11.699418059951778 4.663253896106131 0 0 0
165 1 18.70521637711515 12.599373324931921 3.1043466666666735 0 0 0
166 1 21.82275257792122 12.59937332493192 3.1043466666666744 0 0 0
167 2 23.38152067832425 11.699418059951778 4.663253896106129 0 0 0
168 1 24.94028877872729 12.599373324931918 3.104346666666673 0 0 0
442 2 26.49905687913033 11.69941805995178 4.663253896106128 0 0 0
443 1 28.057824979533354 12.599373324931925 3.1043466666666717 0 0 0
444 2 29.616593079936365 11.699418059951778 4.663253896106132 0 0 0
445 1 31.1753611803394 12.599373324931925 3.104346666666675 0 0 0
446 2 32.734129280742415 11.699418059951778 4.663253896106126 0 0 0
447 1 34.29289738114545 12.599373324931925 3.1043466666666704 0 0 0
169 1 1.5587672726814519 15.29923902708668 3.1043466666666113 0 0 0
170 1 4.676303473487648 15.299239027086657 3.104346666666645 0 0 0
171 2 3.117535373084578 14.399283762106531 4.663253896106062 0 0 0
172 1 7.7938396742936975 15.299239027086651 3.1043466666666735 0 0 0
173 2 6.235071573890671 14.399283762106485 4.663253896106116 0 0 0
174 2 9.352607774696738 14.399283762106517 4.66325389610613 0 0 0
175 1 10.911375875099807 15.29923902708665 3.1043466666666757 0 0 0
176 2 12.470143975502896 14.39928376210654 4.66325389610612 0 0 0
177 1 14.028912075905977 15.299239027086658 3.1043466666666717 0 0 0
178 2 15.587680176309046 14.399283762106535 4.663253896106121 0 0 0
179 1 17.14644827671209 15.299239027086667 3.1043466666666704 0 0 0
180 1 20.263984477518196 15.29923902708667 3.1043466666666704 0 0 0
181 2 18.705216377115146 14.399283762106542 4.663253896106127 0 0 0
182 1 23.381520678324257 15.299239027086667 3.1043466666666735 0 0 0
183 2 21.822752577921225 14.399283762106533 4.66325389610613 0 0 0
184 2 24.940288778727286 14.399283762106526 4.663253896106128 0 0 0
448 1 26.499056879130325 15.299239027086665 3.1043466666666717 0 0 0
449 2 28.057824979533358 14.399283762106531 4.663253896106125 0 0 0
450 1 29.616593079936383 15.299239027086672 3.1043466666666717 0 0 0
451 2 31.175361180339408 14.399283762106531 4.663253896106131 0 0 0
452 1 32.73412928074243 15.299239027086667 3.1043466666666686 0 0 0
453 2 34.29289738114547 14.399283762106531 4.663253896106129 0 0 0
185 2 1.5587672726814694 17.09914946426131 4.6632538961060765 0 0 0
186 2 4.676303473487571 17.099149464261284 4.663253896106117 0 0 0
187 1 3.1175353730845434 17.99910472924144 3.1043466666666486 0 0 0
188 1 6.2350715738906155 17.99910472924142 3.1043466666666757 0 0 0
189 2 7.793839674293638 17.099149464261277 4.663253896106129 0 0 0
190 1 9.35260777469672 17.999104729241413 3.104346666666673 0 0 0
191 2 10.911375875099818 17.09914946426129 4.66325389610612 0 0 0
192 1 12.4701439755029 17.99910472924142 3.104346666666669 0 0 0
193 2 14.028912075905987 17.09914946426129 4.663253896106123 0 0 0
194 1 15.587680176309052 17.99910472924141 3.10434666666667 0 0 0
195 2 17.146448276712114 17.099149464261284 4.663253896106128 0 0 0
196 2 20.263984477518193 17.099149464261288 4.663253896106126 0 0 0
197 1 18.70521637711516 17.99910472924142 3.1043466666666677 0 0 0
198 1 21.822752577921232 17.999104729241427 3.1043466666666713 0 0 0
199 2 23.38152067832427 17.099149464261284 4.663253896106128 0 0 0
200 1 24.940288778727297 17.999104729241413 3.1043466666666704 0 0 0
454 2 26.49905687913033 17.09914946426128 4.663253896106125 0 0 0
455 1 28.05782497953337 17.999104729241417 3.1043466666666713 0 0 0
456 2 29.616593079936386 17.099149464261284 4.663253896106128 0 0 0
457 1 31.175361180339422 17.999104729241413 3.104346666666668 0 0 0
458 2 32.73412928074244 17.099149464261284 4.66325389610613 0 0 0
459 1 34.292897381145465 17.99910472924143 3.1043466666666673 0 0 0
201 1 1.5587672726812793 20.698970431396173 3.1043466666666153 0 0 0
202 1 4.676303473487582 20.698970431396173 3.1043466666666646 0 0 0
203 2 3.1175353730844786 19.799015166416073 4.663253896106097 0 0 0
204 1 7.79383967429368 20.698970431396184 3.1043466666666775 0 0 0
205 2 6.235071573890658 19.799015166416027 4.6632538961061405 0 0 0
206 2 9.352607774696738 19.799015166416048 4.663253896106129 0 0 0
207 1 10.911375875099809 20.698970431396173 3.1043466666666695 0 0 0
208 2 12.470143975502891 19.799015166416048 4.663253896106123 0 0 0
209 1 14.028912075905977 20.698970431396173 3.10434666666667 0 0 0
210 2 15.587680176309046 19.79901516641603 4.663253896106126 0 0 0
211 1 17.146448276712107 20.698970431396173 3.1043466666666735 0 0 0
212 1 20.263984477518186 20.69897043139617 3.1043466666666695 0 0 0
213 2 18.705216377115146 19.79901516641603 4.663253896106127 0 0 0
214 1 23.38152067832427 20.698970431396184 3.1043466666666752 0 0 0
215 2 21.822752577921232 19.79901516641604 4.66325389610613 0 0 0
216 2 24.940288778727297 19.799015166416027 4.663253896106133 0 0 0
460 1 26.49905687913033 20.698970431396177 3.1043466666666735 0 0 0
461 2 28.057824979533358 19.799015166416037 4.663253896106129 0 0 0
462 1 29.616593079936386 20.69897043139617 3.1043466666666677 0 0 0
463 2 31.175361180339404 19.799015166416023 4.6632538961061325 0 0 0
464 1 32.73412928074243 20.69897043139617 3.1043466666666744 0 0 0
465 2 34.29289738114547 19.79901516641603 4.66325389610613 0 0 0
217 2 1.5587672726812756 22.49888086857082 4.6632538961061005 0 0 0
218 2 4.676303473487507 22.49888086857082 4.663253896106115 0 0 0
219 1 3.1175353730843796 23.39883613355093 3.104346666666643 0 0 0
220 1 6.235071573890574 23.39883613355094 3.1043466666666717 0 0 0
221 2 7.793839674293614 22.4988808685708 4.663253896106134 0 0 0
222 1 9.352607774696699 23.398836133550933 3.104346666666671 0 0 0
223 2 10.911375875099798 22.49888086857082 4.663253896106118 0 0 0
224 1 12.470143975502895 23.398836133550933 3.104346666666669 0 0 0
225 2 14.028912075905986 22.498880868570787 4.663253896106125 0 0 0
226 1 15.587680176309046 23.398836133550926 3.1043466666666713 0 0 0
227 2 17.146448276712093 22.498880868570787 4.663253896106124 0 0 0
228 2 20.263984477518182 22.498880868570787 4.663253896106128 0 0 0
229 1 18.70521637711514 23.398836133550926 3.104346666666669 0 0 0
230 1 21.822752577921225 23.39883613355092 3.1043466666666713 0 0 0
231 2 23.381520678324275 22.498880868570787 4.663253896106132 0 0 0
232 1 24.94028877872729 23.39883613355094 3.104346666666673 0 0 0
466 2 26.49905687913033 22.498880868570787 4.663253896106129 0 0 0
467 1 28.057824979533365 23.398836133550933 3.1043466666666686 0 0 0
468 2 29.616593079936383 22.498880868570772 4.663253896106133 0 0 0
469 1 31.175361180339394 23.398836133550933 3.1043466666666797 0 0 0
470 2 32.73412928074242 22.498880868570787 4.663253896106139 0 0 0
471 1 34.29289738114546 23.398836133550926 3.1043466666666695 0 0 0
233 1 1.5587672726811648 26.098701835705647 3.1043466666666695 0 0 0
234 1 4.6763034734875335 26.09870183570565 3.1043466666666535 0 0 0
235 2 3.117535373084368 25.19874657072557 4.663253896106084 0 0 0
236 1 7.793839674293655 26.098701835705672 3.104346666666671 0 0 0
237 2 6.235071573890622 25.198746570725525 4.6632538961061325 0 0 0
238 2 9.352607774696695 25.198746570725543 4.663253896106128 0 0 0
239 1 10.911375875099786 26.098701835705672 3.1043466666666744 0 0 0
240 2 12.470143975502877 25.198746570725543 4.663253896106119 0 0 0
241 1 14.028912075905962 26.098701835705675 3.104346666666668 0 0 0
242 2 15.587680176309044 25.198746570725543 4.663253896106124 0 0 0
243 1 17.1464482767121 26.098701835705675 3.1043466666666704 0 0 0
244 1 20.26398447751818 26.098701835705686 3.104346666666675 0 0 0
245 2 18.705216377115136 25.198746570725543 4.663253896106125 0 0 0
246 1 23.381520678324257 26.098701835705686 3.1043466666666695 0 0 0
247 2 21.822752577921225 25.198746570725532 4.663253896106125 0 0 0
248 2 24.940288778727297 25.198746570725543 4.663253896106127 0 0 0
472 1 26.49905687913033 26.098701835705675 3.104346666666669 0 0 0
473 2 28.057824979533365 25.198746570725525 4.663253896106118 0 0 0
474 1 29.616593079936386 26.098701835705675 3.104346666666665 0 0 0
475 2 31.175361180339408 25.198746570725543 4.663253896106128 0 0 0
476 1 32.734129280742444 26.098701835705675 3.1043466666666752 0 0 0
477 2 34.29289738114546 25.198746570725525 4.6632538961061245 0 0 0
249 2 1.5587672726812438 27.898612272880296 4.663253896106184 0 0 0
250 2 4.676303473487486 27.89861227288029 4.663253896106107 0 0 0
377 1 3.1175353730843733 28.798567537860396 3.104346666666669 0 0 0
253 2 7.793839674293624 27.898612272880282 4.663253896106121 0 0 0
379 1 6.235071573890567 28.798567537860396 3.104346666666668 0 0 0
382 1 9.352607774696704 28.798567537860404 3.1043466666666695 0 0 0
255 2 10.911375875099788 27.898612272880303 4.663253896106119 0 0 0
383 1 12.470143975502884 28.798567537860407 3.1043466666666695 0 0 0
256 2 14.028912075905968 27.89861227288029 4.6632538961061245 0 0 0
384 1 15.587680176309043 28.798567537860414 3.1043466666666717 0 0 0
254 2 17.146448276712107 27.898612272880303 4.663253896106128 0 0 0
252 2 20.263984477518186 27.898612272880303 4.663253896106132 0 0 0
381 1 18.70521637711515 28.79856753786043 3.1043466666666726 0 0 0
251 2 23.38152067832427 27.898612272880303 4.6632538961061325 0 0 0
380 1 21.82275257792122 28.79856753786042 3.1043466666666726 0 0 0
378 1 24.940288778727297 28.798567537860418 3.1043466666666686 0 0 0
478 2 26.49905687913033 27.89861227288029 4.663253896106131 0 0 0
526 1 28.057824979533347 28.798567537860432 3.1043466666666717 0 0 0
479 2 29.616593079936376 27.898612272880303 4.663253896106129 0 0 0
527 1 31.175361180339408 28.79856753786043 3.1043466666666713 0 0 0
480 2 32.73412928074244 27.898612272880296 4.663253896106127 0 0 0
528 1 34.29289738114545 28.79856753786043 3.1043466666666695 0 0 0
305 1 1.5587672726812152 31.498433240015114 3.1043466666666597 0 0 0
297 2 3.117535373084464 30.59847797503505 4.663253896106091 0 0 0
307 1 4.6763034734875975 31.49843324001518 3.1043466666666792 0 0 0
298 2 6.2350715738906555 30.598477975034996 4.663253896106138 0 0 0
309 1 7.793839674293673 31.498433240015174 3.1043466666666784 0 0 0
299 2 9.352607774696725 30.598477975035035 4.663253896106132 0 0 0
300 2 12.470143975502884 30.598477975035035 4.663253896106122 0 0 0
311 1 10.911375875099798 31.498433240015174 3.1043466666666677 0 0 0
301 2 15.587680176309046 30.598477975035042 4.663253896106127 0 0 0
313 1 14.028912075905968 31.498433240015178 3.1043466666666695 0 0 0
315 1 17.146448276712096 31.498433240015178 3.1043466666666775 0 0 0
302 2 18.70521637711514 30.598477975035042 4.66325389610613 0 0 0
317 1 20.263984477518186 31.49843324001518 3.1043466666666757 0 0 0
303 2 21.822752577921232 30.598477975035028 4.663253896106131 0 0 0
319 1 23.38152067832427 31.498433240015167 3.1043466666666735 0 0 0
304 2 24.940288778727297 30.598477975035028 4.663253896106135 0 0 0
499 1 26.49905687913032 31.498433240015192 3.104346666666675 0 0 0
496 2 28.057824979533343 30.598477975035035 4.663253896106133 0 0 0
497 2 31.175361180339408 30.598477975035035 4.663253896106126 0 0 0
501 1 29.616593079936383 31.49843324001519 3.1043466666666695 0 0 0
498 2 34.29289738114546 30.598477975035028 4.663253896106135 0 0 0
503 1 32.73412928074243 31.49843324001519 3.1043466666666686 0 0 0
306 2 1.558767272681345 33.298343677189784 4.6632538961061 0 0 0