LAMMPS data file via write_data, version 21 Nov 2023, timestep = 78, units = metal

19200 atoms
3 atom types

0 623.5085197032987 xlo xhi
0 86.39587480626723 ylo yhi
0 50 zlo zhi
0 0 0 xy xz yz

Masses

1 95.94
2 32.065
3 32.065

Atoms # atomic

5 3 1.5587704715354698 0.899957056822678 1.5454401246318934 0 0 0
11 3 4.676313070051903 0.8999570568226999 1.545440124631914 0 0 0
17 3 7.793855668568396 0.8999570568226959 1.545440124631914 0 0 0
23 3 10.911398267084882 0.8999570568226938 1.545440124631913 0 0 0
29 3 14.028940865601383 0.899957056822695 1.5454401246319136 0 0 0
35 3 17.146483464117868 0.8999570568226939 1.5454401246319132 0 0 0
41 3 20.264026062634372 0.8999570568226942 1.545440124631914 0 0 0
47 3 23.38156866115086 0.8999570568226939 1.545440124631913 0 0 0
53 3 26.499111259667373 0.8999570568226939 1.545440124631913 0 0 0
59 3 29.616653858183838 0.8999570568226934 1.5454401246319118 0 0 0
65 3 32.734196456700346 0.8999570568226989 1.545440124631917 0 0 0
71 3 35.85173905521685 0.8999570568227014 1.5454401246319147 0 0 0
77 3 38.96928165373334 0.8999570568226976 1.5454401246319107 0 0 0
12 3 3.11754177079363 3.5998281445185603 1.5454401246319196 0 0 0
18 3 6.235084369310146 3.5998281445185603 1.5454401246319143 0 0 0
24 3 9.352626967826644 3.5998281445185585 1.5454401246319143 0 0 0
30 3 12.470169566343134 3.5998281445185603 1.5454401246319152 0 0 0
36 3 15.587712164859619 3.5998281445185585 1.545440124631914 0 0 0
42 3 18.705254763376114 3.5998281445185585 1.5454401246319127 0 0 0
48 3 21.822797361892604 3.5998281445185585 1.5454401246319152 0 0 0
54 3 24.940339960409116 3.5998281445185585 1.5454401246319136 0 0 0
60 3 28.057882558925606 3.5998281445185585 1.5454401246319145 0 0 0
66 3 31.175425157442092 3.599828144518564 1.545440124631917 0 0 0
72 3 34.29296775595859 3.5998281445185625 1.5454401246319152 0 0 0
78 3 37.41051035447512 3.599828144518555 1.5454401246319094 0 0 0
1205 3 1.5587704715354702 6.299699232214391 1.5454401246318965 0 0 0
1211 3 4.676313070051903 6.299699232214414 1.5454401246319136 0 0 0
1217 3 7.793855668568396 6.299699232214414 1.5454401246319145 0 0 0
1223 3 10.911398267084882 6.299699232214414 1.545440124631914 0 0 0
1229 3 14.028940865601383 6.299699232214418 1.5454401246319147 0 0 0
1235 3 17.146483464117868 6.299699232214415 1.5454401246319134 0 0 0
1241 3 20.264026062634372 6.299699232214418 1.545440124631914 0 0 0
1247 3 23.381568661150855 6.299699232214414 1.5454401246319127 0 0 0
1253 3 26.499111259667373 6.299699232214414 1.5454401246319136 0 0 0
1259 3 29.616653858183838 6.299699232214414 1.5454401246319127 0 0 0
1265 3 32.734196456700346 6.299699232214418 1.5454401246319158 0 0 0
1271 3 35.85173905521685 6.299699232214418 1.5454401246319143 0 0 0
1277 3 38.96928165373334 6.299699232214412 1.5454401246319072 0 0 0
1212 3 3.11754177079363 8.999570319910273 1.5454401246319185 0 0 0
1218 3 6.235084369310146 8.999570319910273 1.545440124631914 0 0 0
1224 3 9.352626967826644 8.999570319910273 1.5454401246319136 0 0 0
1230 3 12.470169566343134 8.999570319910273 1.5454401246319132 0 0 0
1236 3 15.58771216485963 8.999570319910273 1.5454401246319127 0 0 0
1242 3 18.705254763376114 8.999570319910273 1.5454401246319116 0 0 0
1248 3 21.822797361892604 8.999570319910273 1.5454401246319136 0 0 0
1254 3 24.940339960409116 8.999570319910273 1.5454401246319127 0 0 0
1260 3 28.057882558925606 8.999570319910273 1.5454401246319143 0 0 0
1266 3 31.175425157442092 8.999570319910276 1.5454401246319158 0 0 0
1272 3 34.29296775595857 8.999570319910276 1.5454401246319127 0 0 0
1278 3 37.41051035447511 8.999570319910276 1.5454401246319112 0 0 0
2405 3 1.5587704715354702 11.699441407606095 1.5454401246318943 0 0 0
2411 3 4.676313070051903 11.69944140760612 1.545440124631913 0 0 0
2417 3 7.793855668568396 11.69944140760612 1.545440124631914 0 0 0
2423 3 10.911398267084882 11.69944140760612 1.5454401246319132 0 0 0
2429 3 14.028940865601383 11.69944140760612 1.5454401246319132 0 0 0
2435 3 17.146483464117868 11.69944140760612 1.5454401246319127 0 0 0
2441 3 20.264026062634372 11.69944140760612 1.5454401246319112 0 0 0
2447 3 23.381568661150855 11.69944140760612 1.5454401246319136 0 0 0
2453 3 26.499111259667373 11.69944140760612 1.5454401246319127 0 0 0
2459 3 29.616653858183838 11.69944140760612 1.5454401246319145 0 0 0
2465 3 32.734196456700346 11.69944140760612 1.545440124631914 0 0 0
2471 3 35.85173905521685 11.69944140760612 1.5454401246319134 0 0 0
2477 3 38.96928165373334 11.69944140760612 1.5454401246319094 0 0 0
2412 3 3.1175417707936313 14.399312495301968 1.5454401246319183 0 0 0
2418 3 6.235084369310146 14.399312495301968 1.5454401246319127 0 0 0
2424 3 9.352626967826644 14.399312495301968 1.5454401246319132 0 0 0
2430 3 12.470169566343134 14.399312495301968 1.5454401246319147 0 0 0
2436 3 15.58771216485963 14.399312495301968 1.5454401246319114 0 0 0
2442 3 18.705254763376114 14.399312495301968 1.5454401246319112 0 0 0
2448 3 21.822797361892604 14.399312495301968 1.5454401246319132 0 0 0
2454 3 24.940339960409116 14.399312495301968 1.5454401246319132 0 0 0
2460 3 28.057882558925606 14.399312495301968 1.5454401246319136 0 0 0
2466 3 31.175425157442092 14.399312495301968 1.545440124631915 0 0 0
2472 3 34.29296775595857 14.399312495301968 1.5454401246319127 0 0 0
2478 3 37.41051035447511 14.399312495301968 1.5454401246319114 0 0 0
3605 3 1.558770471535471 17.099183582997785 1.5454401246318945 0 0 0
3611 3 4.676313070051904 17.099183582997806 1.5454401246319127 0 0 0
3617 3 7.793855668568396 17.099183582997806 1.5454401246319127 0 0 0
3623 3 10.911398267084882 17.099183582997806 1.5454401246319127 0 0 0
3629 3 14.028940865601383 17.099183582997806 1.5454401246319127 0 0 0
3635 3 17.146483464117868 17.099183582997806 1.5454401246319112 0 0 0
3641 3 20.264026062634372 17.099183582997806 1.545440124631912 0 0 0
3647 3 23.381568661150855 17.099183582997806 1.5454401246319114 0 0 0
3653 3 26.499111259667373 17.099183582997806 1.5454401246319127 0 0 0
3659 3 29.616653858183838 17.099183582997806 1.545440124631912 0 0 0
3665 3 32.734196456700346 17.099183582997806 1.5454401246319134 0 0 0
3671 3 35.85173905521685 17.099183582997806 1.5454401246319143 0 0 0
3677 3 38.96928165373334 17.099183582997806 1.5454401246319094 0 0 0
3612 3 3.11754177079363 19.799054670693657 1.5454401246319196 0 0 0
3618 3 6.235084369310146 19.799054670693657 1.5454401246319136 0 0 0
3624 3 9.352626967826644 19.799054670693657 1.5454401246319145 0 0 0
3630 3 12.470169566343134 19.799054670693657 1.5454401246319156 0 0 0
3636 3 15.587712164859619 19.799054670693657 1.5454401246319127 0 0 0
3642 3 18.705254763376114 19.799054670693657 1.5454401246319127 0 0 0
3648 3 21.822797361892604 19.799054670693657 1.545440124631914 0 0 0
3654 3 24.940339960409116 19.799054670693657 1.5454401246319127 0 0 0
3660 3 28.057882558925602 19.799054670693657 1.545440124631915 0 0 0
3666 3 31.175425157442092 19.799054670693657 1.5454401246319156 0 0 0
3672 3 34.29296775595857 19.799054670693657 1.545440124631913 0 0 0
3678 3 37.41051035447511 19.799054670693657 1.5454401246319127 0 0 0
4805 3 1.5587704715354695 22.498925758389483 1.5454401246318967 0 0 0
4811 3 4.676313070051903 22.4989257583895 1.545440124631914 0 0 0
4817 3 7.793855668568396 22.4989257583895 1.5454401246319145 0 0 0
4823 3 10.911398267084882 22.4989257583895 1.5454401246319147 0 0 0
4829 3 14.028940865601374 22.4989257583895 1.5454401246319145 0 0 0
4835 3 17.146483464117868 22.4989257583895 1.5454401246319136 0 0 0
4841 3 20.264026062634372 22.4989257583895 1.5454401246319147 0 0 0
4847 3 23.381568661150855 22.4989257583895 1.5454401246319143 0 0 0
4853 3 26.499111259667373 22.4989257583895 1.5454401246319134 0 0 0
4859 3 29.616653858183838 22.4989257583895 1.5454401246319143 0 0 0
4865 3 32.734196456700346 22.498925758389497 1.5454401246319136 0 0 0
4871 3 35.85173905521685 22.4989257583895 1.545440124631915 0 0 0
4877 3 38.96928165373334 22.498925758389497 1.5454401246319096 0 0 0
4812 3 3.117541770793632 25.198796846085344 1.5454401246319196 0 0 0
4818 3 6.235084369310146 25.198796846085358 1.545440124631914 0 0 0
4824 3 9.352626967826644 25.198796846085358 1.5454401246319145 0 0 0
4830 3 12.470169566343134 25.198796846085358 1.5454401246319158 0 0 0
4836 3 15.58771216485963 25.198796846085358 1.5454401246319127 0 0 0
4842 3 18.705254763376114 25.198796846085358 1.5454401246319127 0 0 0
4848 3 21.822797361892604 25.198796846085358 1.5454401246319165 0 0 0
4854 3 24.940339960409116 25.198796846085358 1.5454401246319132 0 0 0
4860 3 28.057882558925606 25.198796846085358 1.5454401246319147 0 0 0
4866 3 31.175425157442092 25.198796846085358 1.5454401246319147 0 0 0
4872 3 34.29296775595857 25.198796846085344 1.5454401246319145 0 0 0
4878 3 37.4105103544751 25.198796846085358 1.5454401246319172 0 0 0
6005 3 1.5587704715354735 27.89866793378118 1.545440124631892 0 0 0
6011 3 4.676313070051908 27.898667933781212 1.5454401246319116 0 0 0
6017 3 7.793855668568396 27.898667933781212 1.5454401246319136 0 0 0
6023 3 10.911398267084882 27.898667933781212 1.5454401246319127 0 0 0
6029 3 14.028940865601383 27.898667933781212 1.5454401246319127 0 0 0
6035 3 17.146483464117868 27.898667933781212 1.545440124631912 0 0 0
6041 3 20.264026062634372 27.898667933781212 1.545440124631914 0 0 0
6047 3 23.381568661150855 27.898667933781212 1.545440124631912 0 0 0
6053 3 26.499111259667373 27.898667933781212 1.5454401246319116 0 0 0
6059 3 29.616653858183838 27.898667933781212 1.545440124631914 0 0 0
6065 3 32.734196456700346 27.898667933781212 1.5454401246319116 0 0 0
6071 3 35.85173905521685 27.898667933781212 1.5454401246319156 0 0 0
6077 3 38.96928165373334 27.898667933781212 1.5454401246319096 0 0 0
3 2 1.5587704715354715 0.8999570568226762 4.663253208701445 0 0 0
9 2 4.676313070051904 0.8999570568227006 4.6632532087014225 0 0 0
8 1 3.1175417707936695 1.7999140860546259 3.104346666666668 0 0 0
14 1 6.235084369310151 1.7999140860546319 3.1043466666666664 0 0 0
15 2 7.793855668568396 0.8999570568226939 4.663253208701421 0 0 0
20 1 9.352626967826644 1.799914086054631 3.1043466666666677 0 0 0
21 2 10.911398267084893 0.899957056822693 4.6632532087014225 0 0 0
26 1 12.470169566343134 1.799914086054631 3.1043466666666664 0 0 0
27 2 14.028940865601383 0.8999570568226939 4.663253208701422 0 0 0
32 1 15.58771216485963 1.7999140860546319 3.104346666666668 0 0 0
33 2 17.146483464117882 0.8999570568226934 4.66325320870142 0 0 0
39 2 20.264026062634372 0.8999570568226934 4.663253208701421 0 0 0
38 1 18.70525476337612 1.7999140860546319 3.1043466666666664 0 0 0
44 1 21.822797361892622 1.79991408605463 3.10434666666667 0 0 0
45 2 23.381568661150876 0.8999570568226934 4.663253208701421 0 0 0
50 1 24.940339960409116 1.7999140860546294 3.104346666666665 0 0 0
51 2 26.499111259667373 0.8999570568226946 4.66325320870142 0 0 0
56 1 28.057882558925606 1.7999140860546339 3.1043466666666673 0 0 0
57 2 29.616653858183838 0.8999570568226924 4.6632532087014225 0 0 0
62 1 31.175425157442096 1.7999140860546319 3.1043466666666677 0 0 0
63 2 32.734196456700346 0.8999570568226999 4.663253208701421 0 0 0
69 2 35.85173905521685 0.899957056822698 4.663253208701416 0 0 0
68 1 34.29296775595859 1.7999140860546354 3.1043466666666664 0 0 0
74 1 37.4105103544751 1.7999140860546312 3.1043466666666664 0 0 0
75 2 38.96928165373334 0.8999570568226947 4.663253208701422 0 0 0
1 1 1.5587704715353805 4.499785173750481 3.104346666666671 0 0 0
7 1 4.676313070051892 4.4997851737504915 3.1043466666666677 0 0 0
10 2 3.1175417707936313 3.5998281445185603 4.663253208701417 0 0 0
13 1 7.793855668568396 4.4997851737504915 3.104346666666667 0 0 0
16 2 6.235084369310146 3.5998281445185603 4.663253208701421 0 0 0
22 2 9.352626967826644 3.5998281445185585 4.663253208701421 0 0 0
19 1 10.911398267084884 4.499785173750493 3.1043466666666664 0 0 0
28 2 12.470169566343134 3.5998281445185585 4.663253208701421 0 0 0
25 1 14.028940865601383 4.499785173750493 3.1043466666666677 0 0 0
34 2 15.58771216485963 3.5998281445185603 4.663253208701422 0 0 0
31 1 17.146483464117868 4.499785173750493 3.1043466666666664 0 0 0
37 1 20.26402606263436 4.499785173750493 3.1043466666666664 0 0 0
40 2 18.705254763376114 3.5998281445185585 4.66325320870142 0 0 0
43 1 23.381568661150855 4.499785173750488 3.1043466666666673 0 0 0
46 2 21.822797361892604 3.5998281445185603 4.663253208701422 0 0 0
52 2 24.940339960409116 3.5998281445185585 4.66325320870142 0 0 0
49 1 26.499111259667362 4.4997851737504915 3.104346666666667 0 0 0
58 2 28.057882558925606 3.5998281445185603 4.663253208701422 0 0 0
55 1 29.616653858183838 4.499785173750497 3.1043466666666673 0 0 0
64 2 31.175425157442092 3.599828144518562 4.663253208701422 0 0 0
61 1 32.734196456700346 4.4997851737504915 3.104346666666669 0 0 0
67 1 35.851739055216854 4.499785173750484 3.104346666666664 0 0 0
70 2 34.29296775595859 3.599828144518562 4.66325320870142 0 0 0
73 1 38.96928165373335 4.499785173750497 3.1043466666666593 0 0 0
76 2 37.41051035447512 3.5998281445185585 4.663253208701419 0 0 0
1203 2 1.5587704715354747 6.299699232214395 4.663253208701444 0 0 0
1209 2 4.676313070051903 6.299699232214414 4.663253208701422 0 0 0
1208 1 3.1175417707936695 7.199656261446338 3.1043466666666677 0 0 0
1214 1 6.235084369310146 7.199656261446345 3.1043466666666673 0 0 0
1215 2 7.793855668568396 6.299699232214414 4.663253208701422 0 0 0
1220 1 9.352626967826644 7.199656261446348 3.104346666666668 0 0 0
1221 2 10.911398267084893 6.299699232214414 4.6632532087014225 0 0 0
1226 1 12.470169566343134 7.199656261446345 3.104346666666665 0 0 0
1227 2 14.028940865601383 6.299699232214418 4.663253208701421 0 0 0
1232 1 15.58771216485963 7.199656261446345 3.1043466666666673 0 0 0
1233 2 17.146483464117882 6.299699232214415 4.66325320870142 0 0 0
1239 2 20.264026062634372 6.299699232214414 4.663253208701421 0 0 0
1238 1 18.70525476337612 7.199656261446348 3.1043466666666664 0 0 0
1244 1 21.822797361892622 7.199656261446345 3.104346666666669 0 0 0
1245 2 23.381568661150876 6.299699232214414 4.663253208701422 0 0 0
1250 1 24.940339960409116 7.199656261446341 3.1043466666666637 0 0 0
1251 2 26.499111259667373 6.299699232214415 4.66325320870142 0 0 0
1256 1 28.057882558925606 7.199656261446348 3.104346666666667 0 0 0
1257 2 29.616653858183838 6.299699232214414 4.6632532087014225 0 0 0
1262 1 31.175425157442096 7.199656261446345 3.1043466666666664 0 0 0
1263 2 32.734196456700346 6.299699232214421 4.66325320870142 0 0 0
1269 2 35.85173905521685 6.299699232214415 4.663253208701416 0 0 0
1268 1 34.29296775595859 7.199656261446348 3.104346666666665 0 0 0
1274 1 37.410510354475086 7.199656261446348 3.104346666666664 0 0 0
1275 2 38.96928165373334 6.299699232214412 4.663253208701421 0 0 0
1201 1 1.5587704715353803 9.899527349142186 3.10434666666667 0 0 0
1207 1 4.676313070051894 9.899527349142195 3.104346666666667 0 0 0
1210 2 3.117541770793632 8.999570319910273 4.663253208701416 0 0 0
1213 1 7.793855668568396 9.899527349142195 3.1043466666666664 0 0 0
1216 2 6.235084369310146 8.999570319910273 4.663253208701421 0 0 0
1222 2 9.352626967826644 8.999570319910276 4.663253208701422 0 0 0
1219 1 10.911398267084884 9.899527349142195 3.1043466666666664 0 0 0
1228 2 12.470169566343134 8.999570319910273 4.663253208701419 0 0 0
1225 1 14.028940865601387 9.899527349142195 3.1043466666666664 0 0 0
1234 2 15.58771216485963 8.999570319910273 4.663253208701421 0 0 0
1231 1 17.146483464117868 9.899527349142195 3.1043466666666664 0 0 0
1237 1 20.26402606263436 9.899527349142195 3.1043466666666664 0 0 0
1240 2 18.705254763376114 8.999570319910273 4.66325320870142 0 0 0
1243 1 23.381568661150855 9.899527349142195 3.1043466666666664 0 0 0
1246 2 21.822797361892604 8.999570319910273 4.663253208701421 0 0 0
1252 2 24.940339960409116 8.999570319910273 4.66325320870142 0 0 0
1249 1 26.499111259667362 9.899527349142195 3.1043466666666655 0 0 0
1258 2 28.057882558925606 8.999570319910273 4.663253208701422 0 0 0
1255 1 29.616653858183838 9.899527349142199 3.1043466666666664 0 0 0
1264 2 31.175425157442092 8.999570319910273 4.663253208701421 0 0 0
1261 1 32.73419645670034 9.899527349142195 3.1043466666666686 0 0 0
1267 1 35.85173905521685 9.899527349142192 3.104346666666662 0 0 0
1270 2 34.29296775595859 8.999570319910273 4.663253208701421 0 0 0
1273 1 38.96928165373334 9.899527349142206 3.104346666666665 0 0 0
1276 2 37.41051035447511 8.999570319910276 4.663253208701418 0 0 0
2403 2 1.558770471535474 11.699441407606095 4.663253208701443 0 0 0
2409 2 4.676313070051903 11.69944140760612 4.663253208701421 0 0 0
2408 1 3.1175417707936695 12.599398436838033 3.1043466666666673 0 0 0
2414 1 6.235084369310146 12.59939843683804 3.104346666666667 0 0 0
2415 2 7.793855668568396 11.69944140760612 4.663253208701422 0 0 0
2420 1 9.352626967826644 12.59939843683804 3.104346666666667 0 0 0
2421 2 10.911398267084893 11.69944140760612 4.663253208701422 0 0 0
2426 1 12.470169566343134 12.59939843683804 3.1043466666666655 0 0 0
2427 2 14.028940865601383 11.69944140760612 4.663253208701421 0 0 0
2432 1 15.58771216485963 12.59939843683804 3.104346666666667 0 0 0
2433 2 17.146483464117882 11.69944140760612 4.663253208701419 0 0 0
2439 2 20.264026062634372 11.69944140760612 4.663253208701421 0 0 0
2438 1 18.70525476337612 12.59939843683804 3.104346666666664 0 0 0
2444 1 21.822797361892604 12.59939843683804 3.1043466666666664 0 0 0
2445 2 23.381568661150855 11.69944140760612 4.66325320870142 0 0 0
2450 1 24.940339960409116 12.599398436838033 3.1043466666666664 0 0 0
2451 2 26.499111259667373 11.69944140760612 4.663253208701421 0 0 0
2456 1 28.057882558925606 12.599398436838047 3.1043466666666664 0 0 0
2457 2 29.616653858183838 11.69944140760612 4.66325320870142 0 0 0
2462 1 31.175425157442096 12.59939843683804 3.1043466666666664 0 0 0
2463 2 32.734196456700346 11.69944140760612 4.663253208701421 0 0 0
2469 2 35.85173905521685 11.69944140760612 4.663253208701415 0 0 0
2468 1 34.29296775595859 12.59939843683804 3.104346666666664 0 0 0
2474 1 37.410510354475086 12.59939843683804 3.104346666666664 0 0 0
2475 2 38.96928165373334 11.69944140760612 4.663253208701424 0 0 0
2401 1 1.5587704715353816 15.29926952453387 3.104346666666668 0 0 0
2407 1 4.676313070051894 15.299269524533884 3.1043466666666664 0 0 0
2410 2 3.117541770793635 14.399312495301968 4.663253208701416 0 0 0
2413 1 7.793855668568396 15.299269524533884 3.104346666666665 0 0 0
2416 2 6.235084369310146 14.399312495301968 4.66325320870142 0 0 0
2422 2 9.352626967826644 14.399312495301968 4.663253208701421 0 0 0
2419 1 10.911398267084884 15.299269524533884 3.1043466666666664 0 0 0
2428 2 12.470169566343134 14.399312495301968 4.66325320870142 0 0 0
2425 1 14.028940865601387 15.299269524533884 3.1043466666666664 0 0 0
2434 2 15.58771216485963 14.399312495301968 4.66325320870142 0 0 0
2431 1 17.146483464117868 15.299269524533884 3.104346666666664 0 0 0
2437 1 20.26402606263436 15.299269524533884 3.1043466666666664 0 0 0
2440 2 18.705254763376114 14.399312495301968 4.663253208701419 0 0 0
2443 1 23.381568661150855 15.299269524533884 3.1043466666666664 0 0 0
2446 2 21.822797361892604 14.399312495301968 4.663253208701421 0 0 0
2452 2 24.940339960409116 14.399312495301968 4.66325320870142 0 0 0
2449 1 26.499111259667362 15.299269524533884 3.1043466666666664 0 0 0
2458 2 28.057882558925606 14.399312495301968 4.663253208701421 0 0 0
2455 1 29.616653858183838 15.29926952453389 3.104346666666665 0 0 0
2464 2 31.175425157442092 14.399312495301968 4.66325320870142 0 0 0
2461 1 32.73419645670034 15.299269524533884 3.104346666666669 0 0 0
2467 1 35.85173905521685 15.299269524533884 3.1043466666666615 0 0 0
2470 2 34.29296775595859 14.399312495301968 4.663253208701418 0 0 0
2473 1 38.96928165373334 15.299269524533896 3.1043466666666664 0 0 0
2476 2 37.41051035447511 14.399312495301968 4.663253208701418 0 0 0
3603 2 1.5587704715354747 17.099183582997778 4.6632532087014456 0 0 0
3609 2 4.676313070051908 17.099183582997806 4.6632532087014225 0 0 0
3608 1 3.1175417707936686 17.99914061222972 3.1043466666666695 0 0 0
3614 1 6.235084369310151 17.999140612229727 3.1043466666666677 0 0 0
3615 2 7.793855668568396 17.099183582997806 4.6632532087014225 0 0 0
3620 1 9.352626967826644 17.999140612229727 3.1043466666666677 0 0 0
3621 2 10.911398267084893 17.099183582997806 4.6632532087014225 0 0 0
3626 1 12.470169566343138 17.999140612229727 3.1043466666666655 0 0 0
3627 2 14.028940865601383 17.099183582997806 4.663253208701422 0 0 0
3632 1 15.58771216485963 17.999140612229727 3.1043466666666673 0 0 0
3633 2 17.146483464117882 17.099183582997806 4.66325320870142 0 0 0
3639 2 20.264026062634372 17.099183582997806 4.663253208701422 0 0 0
3638 1 18.70525476337612 17.999140612229727 3.104346666666665 0 0 0
3644 1 21.822797361892615 17.999140612229727 3.104346666666668 0 0 0
3645 2 23.38156866115086 17.099183582997806 4.6632532087014225 0 0 0
3650 1 24.940339960409116 17.99914061222972 3.104346666666664 0 0 0
3651 2 26.499111259667373 17.099183582997806 4.663253208701422 0 0 0
3656 1 28.057882558925606 17.999140612229734 3.104346666666667 0 0 0
3657 2 29.616653858183838 17.099183582997806 4.663253208701421 0 0 0
3662 1 31.175425157442096 17.999140612229727 3.1043466666666664 0 0 0
3663 2 32.734196456700346 17.099183582997806 4.663253208701422 0 0 0
3669 2 35.85173905521685 17.099183582997806 4.663253208701418 0 0 0
3668 1 34.29296775595859 17.999140612229727 3.1043466666666664 0 0 0
3674 1 37.410510354475086 17.999140612229727 3.1043466666666664 0 0 0
3675 2 38.96928165373334 17.099183582997806 4.663253208701426 0 0 0
3601 1 1.5587704715353778 20.69901169992557 3.1043466666666704 0 0 0
3607 1 4.676313070051894 20.699011699925585 3.1043466666666673 0 0 0
3610 2 3.117541770793632 19.799054670693657 4.663253208701417 0 0 0
3613 1 7.793855668568396 20.699011699925585 3.1043466666666664 0 0 0
3616 2 6.235084369310146 19.799054670693657 4.663253208701421 0 0 0
3622 2 9.352626967826644 19.799054670693657 4.663253208701422 0 0 0
3619 1 10.911398267084884 20.699011699925585 3.104346666666667 0 0 0
3628 2 12.470169566343134 19.799054670693657 4.663253208701421 0 0 0
3625 1 14.028940865601383 20.699011699925585 3.1043466666666673 0 0 0
3634 2 15.58771216485963 19.799054670693657 4.663253208701422 0 0 0
3631 1 17.146483464117868 20.699011699925585 3.104346666666665 0 0 0
3637 1 20.26402606263436 20.699011699925585 3.1043466666666664 0 0 0
3640 2 18.705254763376114 19.799054670693657 4.66325320870142 0 0 0
3643 1 23.381568661150855 20.699011699925585 3.1043466666666664 0 0 0
3646 2 21.822797361892604 19.799054670693657 4.663253208701422 0 0 0
3652 2 24.940339960409116 19.799054670693657 4.66325320870142 0 0 0
3649 1 26.49911125966735 20.699011699925585 3.1043466666666664 0 0 0
3658 2 28.057882558925602 19.799054670693657 4.663253208701422 0 0 0
3655 1 29.616653858183838 20.699011699925585 3.1043466666666664 0 0 0
3664 2 31.175425157442092 19.799054670693657 4.663253208701422 0 0 0
3661 1 32.73419645670034 20.699011699925585 3.104346666666669 0 0 0
3667 1 35.85173905521685 20.699011699925578 3.104346666666662 0 0 0
3670 2 34.29296775595859 19.799054670693657 4.663253208701421 0 0 0
3673 1 38.96928165373334 20.69901169992559 3.1043466666666664 0 0 0
3676 2 37.41051035447511 19.799054670693657 4.66325320870142 0 0 0
4803 2 1.5587704715354722 22.498925758389483 4.663253208701445 0 0 0
4809 2 4.676313070051904 22.4989257583895 4.663253208701422 0 0 0
4808 1 3.1175417707936695 23.398882787621428 3.1043466666666704 0 0 0
4814 1 6.23508436931015 23.398882787621435 3.104346666666667 0 0 0
4815 2 7.793855668568396 22.4989257583895 4.663253208701421 0 0 0
4820 1 9.352626967826644 23.398882787621435 3.1043466666666677 0 0 0
4821 2 10.911398267084893 22.4989257583895 4.663253208701422 0 0 0
4826 1 12.470169566343134 23.398882787621435 3.1043466666666664 0 0 0
4827 2 14.028940865601383 22.4989257583895 4.663253208701421 0 0 0
4832 1 15.58771216485963 23.398882787621435 3.1043466666666664 0 0 0
4833 2 17.146483464117882 22.4989257583895 4.663253208701419 0 0 0
4839 2 20.264026062634372 22.4989257583895 4.663253208701422 0 0 0
4838 1 18.70525476337612 23.398882787621435 3.104346666666665 0 0 0
4844 1 21.822797361892615 23.398882787621435 3.1043466666666704 0 0 0
4845 2 23.381568661150876 22.4989257583895 4.663253208701422 0 0 0
4850 1 24.940339960409116 23.398882787621435 3.104346666666662 0 0 0
4851 2 26.499111259667373 22.4989257583895 4.663253208701419 0 0 0
4856 1 28.057882558925606 23.398882787621435 3.1043466666666664 0 0 0
4857 2 29.616653858183838 22.4989257583895 4.663253208701421 0 0 0
4862 1 31.175425157442096 23.398882787621435 3.1043466666666664 0 0 0
4863 2 32.734196456700346 22.498925758389497 4.6632532087014225 0 0 0
4869 2 35.85173905521685 22.498925758389497 4.663253208701416 0 0 0
4868 1 34.29296775595859 23.39888278762145 3.104346666666667 0 0 0
4874 1 37.410510354475086 23.39888278762145 3.1043466666666673 0 0 0
4875 2 38.96928165373334 22.498925758389497 4.663253208701425 0 0 0
4801 1 1.5587704715353814 26.098753875317286 3.1043466666666673 0 0 0
4807 1 4.676313070051892 26.098753875317286 3.1043466666666664 0 0 0
4810 2 3.1175417707936344 25.198796846085358 4.663253208701415 0 0 0
4813 1 7.793855668568396 26.098753875317286 3.1043466666666664 0 0 0
4816 2 6.235084369310146 25.198796846085358 4.66325320870142 0 0 0
4822 2 9.352626967826644 25.198796846085358 4.663253208701422 0 0 0
4819 1 10.911398267084884 26.098753875317286 3.104346666666667 0 0 0
4828 2 12.470169566343134 25.198796846085358 4.66325320870142 0 0 0
4825 1 14.028940865601387 26.098753875317286 3.1043466666666664 0 0 0
4834 2 15.58771216485963 25.198796846085358 4.663253208701421 0 0 0
4831 1 17.146483464117868 26.098753875317286 3.104346666666665 0 0 0
4837 1 20.26402606263436 26.098753875317286 3.1043466666666664 0 0 0
4840 2 18.705254763376114 25.198796846085358 4.66325320870142 0 0 0
4843 1 23.38156866115086 26.098753875317286 3.1043466666666664 0 0 0
4846 2 21.822797361892604 25.198796846085358 4.663253208701422 0 0 0
4852 2 24.940339960409116 25.198796846085358 4.663253208701421 0 0 0
4849 1 26.499111259667362 26.098753875317286 3.1043466666666664 0 0 0
4858 2 28.057882558925606 25.198796846085358 4.663253208701421 0 0 0
4855 1 29.616653858183838 26.098753875317286 3.1043466666666664 0 0 0
4864 2 31.175425157442092 25.198796846085358 4.663253208701419 0 0 0
4861 1 32.73419645670034 26.098753875317286 3.1043466666666664 0 0 0
4867 1 35.85173905521685 26.098753875317286 3.1043466666666664 0 0 0
4870 2 34.29296775595857 25.198796846085344 4.663253208701419 0 0 0
4873 1 38.96928165373334 26.098753875317286 3.104346666666665 0 0 0
4876 2 37.4105103544751 25.198796846085344 4.663253208701419 0 0 0
6003 2 1.558770471535474 27.89866793378118 4.663253208701441 0 0 0
6009 2 4.676313070051906 27.898667933781212 4.66325320870142 0 0 0
6015 2 7.793855668568396 27.898667933781212 4.66325320870142 0 0 0
6021 2 10.911398267084893 27.898667933781212 4.663253208701421 0 0 0
6027 2 14.028940865601383 27.898667933781212 4.663253208701419 0 0 0
6033 2 17.146483464117882 27.898667933781212 4.663253208701419 0 0 0
6039 2 20.264026062634372 27.898667933781212 4.663253208701419 0 0 0
6045 2 23.381568661150876 27.898667933781212 4.66325320870142 0 0 0
6051 2 26.499111259667373 27.898667933781212 4.66325320870142 0 0 0
6057 2 29.616653858183838 27.898667933781212 4.663253208701419 0 0 0
6063 2 32.734196456700346 27.898667933781212 4.663253208701421 0 0 0
6069 2 35.85173905521685 27.898667933781212 4.663253208701418 0 0 0
6075 2 38.96928165373334 27.898667933781212 4.6632532087014225 0 0 0
6012 3 3.11754177079363 30.59853902147706 1.5454401246319176 0 0 0
6018 3 6.235084369310146 30.59853902147706 1.5454401246319132 0 0 0
6024 3 9.352626967826644 30.59853902147706 1.5454401246319132 0 0 0
6030 3 12.470169566343134 30.59853902147706 1.5454401246319136 0 0 0
6036 3 15.587712164859619 30.59853902147706 1.5454401246319127 0 0 0
6042 3 18.705254763376114 30.59853902147706 1.5454401246319112 0 0 0
6048 3 21.822797361892604 30.59853902147706 1.54544012463191 0 0 0
6054 3 24.940339960409116 30.59853902147706 1.5454401246319127 0 0 0
6060 3 28.057882558925602 30.59853902147706 1.545440124631914 0 0 0
6066 3 31.175425157442092 30.59853902147706 1.545440124631915 0 0 0
6072 3 34.29296775595859 30.59853902147706 1.5454401246319145 0 0 0
6078 3 37.41051035447511 30.59853902147706 1.5454401246319127 0 0 0
7205 3 1.5587704715354695 33.298410109172885 1.5454401246318952 0 0 0
7211 3 4.676313070051901 33.29841010917291 1.545440124631913 0 0 0
7217 3 7.793855668568396 33.29841010917291 1.5454401246319143 0 0 0
7223 3 10.911398267084882 33.29841010917291 1.5454401246319136 0 0 0
7229 3 14.028940865601383 33.29841010917291 1.5454401246319143 0 0 0
7235 3 17.146483464117868 33.29841010917291 1.5454401246319132 0 0 0
7241 3 20.264026062634372 33.298410109172885 1.5454401246319112 0 0 0
7247 3 23.381568661150855 33.29841010917291 1.545440124631914 0 0 0
7253 3 26.499111259667373 33.29841010917291 1.5454401246319136 0 0 0
7259 3 29.616653858183838 33.29841010917291 1.5454401246319154 0 0 0
7265 3 32.734196456700346 33.29841010917291 1.545440124631914 0 0 0
7271 3 35.85173905521685 33.29841010917291 1.5454401246319183 0 0 0
7277 3 38.96928165373334 33.298410109172885 1.5454401246319098 0 0 0
7212 3 3.1175417707936246 35.998281196868774 1.5454401246319205 0 0 0
7218 3 6.235084369310146 35.99828119686876 1.5454401246319154 0 0 0
7224 3 9.352626967826644 35.99828119686876 1.545440124631916 0 0 0
7230 3 12.470169566343134 35.998281196868774 1.5454401246319154 0 0 0
7236 3 15.58771216485963 35.998281196868774 1.5454401246319154 0 0 0
7242 3 18.705254763376114 35.99828119686876 1.5454401246319143 0 0 0
7248 3 21.822797361892604 35.99828119686876 1.5454401246319134 0 0 0
7254 3 24.940339960409116 35.99828119686876 1.5454401246319132 0 0 0
7260 3 28.057882558925606 35.99828119686876 1.5454401246319156 0 0 0
7266 3 31.175425157442092 35.998281196868774 1.5454401246319176 0 0 0