LAMMPS data file via write_data, version 2 Aug 2023, timestep = 558, units = metal

18592 atoms
3 atom types

0 623.5065960721024 xlo xhi
0 86.39569000166215 ylo yhi
0 50 zlo zhi
0 0 0 xy xz yz

Masses

1 95.94
2 32.065
3 32.065

Atoms # atomic

1 3 1.558765662460522 0.8999549877743048 1.545438900064156 0 0 0
2 3 4.676298642821132 0.8999549877741057 1.5454389000639601 0 0 0
3 3 7.793831623181049 0.8999549877742747 1.5454389000639934 0 0 0
4 3 10.911364603542257 0.8999549877741643 1.545438900063927 0 0 0
5 3 14.028897583902323 0.8999549877742277 1.545438900063931 0 0 0
6 3 17.14643056426273 0.8999549877742478 1.5454389000639253 0 0 0
7 3 20.26396354462326 0.8999549877742401 1.5454389000639193 0 0 0
8 3 23.381496524983657 0.8999549877742538 1.5454389000639157 0 0 0
257 3 26.499029505344197 0.8999549877742495 1.5454389000639357 0 0 0
258 3 29.616562485704634 0.8999549877742277 1.5454389000639301 0 0 0
259 3 32.73409546606512 0.899954987774297 1.5454389000639621 0 0 0
260 3 35.85162844642578 0.8999549877741831 1.5454389000639188 0 0 0
261 3 38.96916142678619 0.899954987774235 1.5454389000639561 0 0 0
9 3 3.117532152641363 3.5998203003262303 1.5454389000637867 0 0 0
10 3 6.235065133000909 3.599820300326115 1.545438900063787 0 0 0
11 3 9.352598113361978 3.5998203003262588 1.54543890006397 0 0 0
12 3 12.470131093722381 3.5998203003262197 1.545438900063895 0 0 0
13 3 15.587664074082316 3.5998203003262264 1.545438900063965 0 0 0
14 3 18.705197054442973 3.5998203003261664 1.545438900063967 0 0 0
15 3 21.822730034803495 3.599820300326187 1.5454389000639286 0 0 0
16 3 24.94026301516392 3.5998203003262077 1.5454389000639683 0 0 0
262 3 28.05779599552445 3.5998203003262246 1.545438900063926 0 0 0
263 3 31.175328975884895 3.5998203003261784 1.5454389000639253 0 0 0
264 3 34.292861956245446 3.5998203003261375 1.5454389000639934 0 0 0
265 3 37.41039493660591 3.5998203003261784 1.5454389000639421 0 0 0
17 3 1.5587656624608053 6.299685612878189 1.545438900063559 0 0 0
18 3 4.676298642820676 6.2996856128780525 1.545438900063839 0 0 0
19 3 7.793831623181088 6.299685612878236 1.5454389000640651 0 0 0
20 3 10.911364603542392 6.2996856128781005 1.5454389000639108 0 0 0
21 3 14.028897583902179 6.299685612878114 1.545438900063885 0 0 0
22 3 17.146430564262623 6.299685612878076 1.5454389000639768 0 0 0
23 3 20.263963544623294 6.299685612878038 1.5454389000639153 0 0 0
24 3 23.381496524983664 6.299685612878076 1.545438900063952 0 0 0
266 3 26.49902950534421 6.299685612878085 1.5454389000639268 0 0 0
267 3 29.616562485704655 6.299685612878037 1.5454389000639397 0 0 0
268 3 32.73409546606512 6.299685612878073 1.5454389000639308 0 0 0
269 3 35.85162844642566 6.299685612878089 1.5454389000639406 0 0 0
270 3 38.969161426786194 6.299685612878066 1.5454389000639508 0 0 0
25 3 3.1175321526417004 8.999550925429745 1.545438900063771 0 0 0
26 3 6.235065133000824 8.999550925429974 1.5454389000639055 0 0 0
27 3 9.352598113362102 8.999550925430201 1.5454389000640132 0 0 0
28 3 12.470131093722362 8.999550925429974 1.5454389000638589 0 0 0
29 3 15.587664074082207 8.999550925430055 1.5454389000639683 0 0 0
30 3 18.705197054442984 8.999550925430064 1.5454389000639572 0 0 0
31 3 21.822730034803513 8.999550925430013 1.5454389000639324 0 0 0
32 3 24.940263015163907 8.999550925430064 1.5454389000639412 0 0 0
271 3 28.05779599552441 8.999550925430054 1.545438900063958 0 0 0
272 3 31.17532897588491 8.999550925430043 1.545438900063999 0 0 0
273 3 34.29286195624539 8.999550925430032 1.5454389000639628 0 0 0
274 3 37.41039493660592 8.999550925430013 1.5454389000639208 0 0 0
33 3 1.5587656624609358 11.69941623798227 1.5454389000641537 0 0 0
34 3 4.6762986428211235 11.699416237981824 1.5454389000638127 0 0 0
35 3 7.793831623181058 11.69941623798231 1.5454389000640683 0 0 0
36 3 10.911364603542328 11.69941623798205 1.545438900063928 0 0 0
37 3 14.028897583902133 11.699416237982001 1.5454389000638966 0 0 0
38 3 17.146430564262612 11.69941623798205 1.5454389000639834 0 0 0
39 3 20.263963544623298 11.69941623798204 1.5454389000639464 0 0 0
40 3 23.381496524983735 11.699416237982089 1.5454389000639501 0 0 0
275 3 26.49902950534418 11.699416237982057 1.545438900063924 0 0 0
276 3 29.616562485704648 11.69941623798207 1.5454389000639284 0 0 0
277 3 32.73409546606516 11.699416237982105 1.5454389000639546 0 0 0
278 3 35.85162844642562 11.699416237982042 1.5454389000639657 0 0 0
279 3 38.969161426786165 11.699416237982083 1.5454389000639406 0 0 0
41 3 3.117532152641258 14.399281550533958 1.5454389000638582 0 0 0
42 3 6.235065133001063 14.39928155053374 1.5454389000639774 0 0 0
43 3 9.352598113362246 14.399281550534116 1.5454389000639444 0 0 0
44 3 12.470131093722188 14.399281550533827 1.5454389000638649 0 0 0
45 3 15.587664074082205 14.399281550533946 1.5454389000639586 0 0 0
46 3 18.70519705444305 14.39928155053397 1.5454389000639615 0 0 0
47 3 21.822730034803516 14.399281550533924 1.5454389000639364 0 0 0
48 3 24.94026301516393 14.399281550533939 1.5454389000639381 0 0 0
280 3 28.057795995524444 14.399281550533946 1.5454389000639235 0 0 0
281 3 31.175328975884902 14.399281550533965 1.5454389000639628 0 0 0
282 3 34.292861956245346 14.399281550533939 1.5454389000638886 0 0 0
283 3 37.410394936605876 14.399281550533946 1.5454389000639364 0 0 0
49 3 1.5587656624615858 17.099146863085785 1.545438900063944 0 0 0
50 3 4.6762986428213305 17.09914686308562 1.5454389000639643 0 0 0
51 3 7.793831623181154 17.09914686308614 1.5454389000640272 0 0 0
52 3 10.911364603542115 17.099146863085743 1.545438900063948 0 0 0
53 3 14.028897583902078 17.099146863085785 1.5454389000639397 0 0 0
54 3 17.1464305642627 17.099146863085853 1.5454389000639597 0 0 0
55 3 20.263963544623373 17.099146863085853 1.5454389000639437 0 0 0
56 3 23.381496524983735 17.099146863085885 1.545438900063977 0 0 0
284 3 26.49902950534418 17.099146863085853 1.5454389000639455 0 0 0
285 3 29.616562485704648 17.09914686308586 1.5454389000639632 0 0 0
286 3 32.73409546606518 17.09914686308587 1.545438900063981 0 0 0
287 3 35.851628446425636 17.09914686308586 1.5454389000639526 0 0 0
288 3 38.96916142678615 17.099146863085853 1.5454389000639575 0 0 0
57 3 3.117532152641499 19.799012175638037 1.5454389000637285 0 0 0
58 3 6.2350651330008535 19.799012175637852 1.5454389000639952 0 0 0
59 3 9.352598113362221 19.79901217563789 1.5454389000640065 0 0 0
60 3 12.470131093722246 19.799012175637625 1.54543890006384 0 0 0
61 3 15.587664074082236 19.799012175637795 1.545438900063962 0 0 0
62 3 18.70519705444305 19.799012175637824 1.545438900063962 0 0 0
63 3 21.822730034803552 19.799012175637838 1.5454389000639077 0 0 0
64 3 24.94026301516387 19.79901217563781 1.5454389000639261 0 0 0
289 3 28.057795995524373 19.799012175637863 1.5454389000639288 0 0 0
290 3 31.175328975884916 19.799012175637788 1.5454389000639666 0 0 0
291 3 34.29286195624541 19.799012175637824 1.5454389000639202 0 0 0
292 3 37.410394936605954 19.799012175637824 1.5454389000639255 0 0 0
193 3 1.5587656624611215 22.49887748819001 1.5454389000636233 0 0 0
194 3 4.676298642820969 22.498877488189475 1.5454389000639586 0 0 0
195 3 7.79383162318106 22.498877488189965 1.545438900064065 0 0 0
196 3 10.911364603542138 22.498877488189695 1.5454389000639452 0 0 0
197 3 14.028897583902157 22.49887748818975 1.5454389000639337 0 0 0
198 3 17.1464305642627 22.498877488189763 1.5454389000639879 0 0 0
199 3 20.26396354462335 22.498877488189734 1.5454389000639421 0 0 0
200 3 23.381496524983696 22.49887748818972 1.545438900063938 0 0 0
365 3 26.49902950534425 22.498877488189734 1.5454389000639757 0 0 0
366 3 29.61656248570467 22.498877488189745 1.5454389000639477 0 0 0
367 3 32.73409546606514 22.498877488189816 1.5454389000639255 0 0 0
368 3 35.85162844642572 22.49887748818976 1.5454389000639517 0 0 0
369 3 38.96916142678613 22.498877488189777 1.5454389000639401 0 0 0
201 3 3.1175321526418007 25.198742800742004 1.5454389000639652 0 0 0
202 3 6.235065133000989 25.19874280074154 1.5454389000638942 0 0 0
203 3 9.352598113362012 25.198742800741748 1.5454389000639435 0 0 0
204 3 12.470131093722177 25.198742800741524 1.545438900063885 0 0 0
205 3 15.587664074082266 25.198742800741694 1.5454389000639357 0 0 0
206 3 18.705197054443065 25.198742800741716 1.5454389000639808 0 0 0
207 3 21.82273003480353 25.19874280074168 1.545438900063922 0 0 0
208 3 24.94026301516394 25.198742800741638 1.5454389000639495 0 0 0
370 3 28.05779599552442 25.198742800741694 1.545438900063947 0 0 0
371 3 31.175328975884955 25.198742800741663 1.5454389000639523 0 0 0
372 3 34.29286195624537 25.19874280074168 1.5454389000639173 0 0 0
373 3 37.41039493660592 25.198742800741762 1.5454389000639381 0 0 0
209 3 1.5587656624608273 27.89860811329391 1.5454389000641935 0 0 0
210 3 4.676298642820889 27.898608113293363 1.5454389000638233 0 0 0
211 3 7.793831623181139 27.89860811329384 1.545438900064051 0 0 0
212 3 10.911364603542328 27.8986081132935 1.545438900063949 0 0 0
213 3 14.028897583902133 27.898608113293605 1.5454389000639355 0 0 0
214 3 17.146430564262722 27.89860811329365 1.5454389000639743 0 0 0
215 3 20.263963544623365 27.898608113293648 1.5454389000639075 0 0 0
216 3 23.381496524983653 27.898608113293662 1.5454389000639484 0 0 0
374 3 26.499029505344172 27.898608113293648 1.5454389000639521 0 0 0
375 3 29.616562485704634 27.898608113293605 1.5454389000639135 0 0 0
376 3 32.73409546606516 27.898608113293687 1.545438900063951 0 0 0
377 3 35.85162844642568 27.89860811329359 1.5454389000639384 0 0 0
378 3 38.96916142678611 27.898608113293623 1.5454389000639572 0 0 0
65 2 1.558765662460698 0.8999549877743203 4.663254433269331 0 0 0
66 2 4.676298642821165 0.8999549877741424 4.663254433269417 0 0 0
67 1 3.117532152641057 1.7999105239598845 3.104346666666657 0 0 0
68 1 6.235065133001035 1.7999105239600182 3.1043466666666837 0 0 0
69 2 7.793831623181104 0.8999549877743429 4.663254433269314 0 0 0
70 1 9.352598113361754 1.7999105239597037 3.104346666666632 0 0 0
71 2 10.911364603542221 0.8999549877741536 4.663254433269373 0 0 0
72 1 12.470131093722296 1.7999105239599924 3.1043466666666624 0 0 0
73 2 14.028897583902273 0.8999549877742842 4.663254433269435 0 0 0
74 1 15.587664074082484 1.7999105239598545 3.1043466666666784 0 0 0
75 2 17.146430564262733 0.8999549877742636 4.6632544332694295 0 0 0
76 2 20.26396354462329 0.8999549877742166 4.66325443326942 0 0 0
77 1 18.705197054443023 1.799910523959787 3.1043466666666855 0 0 0
78 1 21.822730034803495 1.7999105239598374 3.1043466666666615 0 0 0
79 2 23.38149652498366 0.8999549877742431 4.663254433269397 0 0 0
80 1 24.940263015163982 1.79991052395984 3.10434666666667 0 0 0
293 2 26.4990295053442 0.899954987774235 4.663254433269391 0 0 0
294 1 28.05779599552442 1.7999105239598419 3.104346666666662 0 0 0
295 2 29.616562485704677 0.8999549877742178 4.663254433269399 0 0 0
296 1 31.17532897588491 1.7999105239598245 3.1043466666666717 0 0 0
297 2 32.73409546606514 0.8999549877742632 4.663254433269391 0 0 0
298 2 35.85162844642575 0.8999549877742332 4.663254433269431 0 0 0
299 1 34.29286195624549 1.799910523959793 3.104346666666678 0 0 0
300 1 37.41039493660593 1.799910523959829 3.1043466666666757 0 0 0
301 2 38.96916142678613 0.8999549877742512 4.663254433269419 0 0 0
81 1 1.5587656624611412 4.499775836511827 3.1043466666666863 0 0 0
82 1 4.676298642821023 4.499775836511968 3.1043466666666726 0 0 0
83 2 3.1175321526413935 3.5998203003261855 4.663254433269519 0 0 0
84 1 7.793831623181232 4.499775836511592 3.1043466666666477 0 0 0
85 2 6.2350651330009255 3.5998203003261167 4.663254433269567 0 0 0
86 2 9.352598113361953 3.5998203003262748 4.663254433269318 0 0 0
87 1 10.911364603542292 4.499775836511827 3.1043466666666655 0 0 0
88 2 12.47013109372237 3.599820300326225 4.663254433269477 0 0 0
89 1 14.028897583902308 4.4997758365119225 3.104346666666685 0 0 0
90 2 15.587664074082355 3.5998203003262557 4.663254433269402 0 0 0
91 1 17.14643056426267 4.499775836511697 3.104346666666681 0 0 0
92 1 20.263963544623238 4.4997758365117555 3.1043466666666726 0 0 0
93 2 18.705197054443012 3.599820300326194 4.663254433269399 0 0 0
94 1 23.381496524983675 4.499775836511753 3.1043466666666792 0 0 0
95 2 21.82273003480346 3.5998203003261664 4.6632544332694 0 0 0
96 2 24.940263015163914 3.599820300326192 4.663254433269391 0 0 0
302 1 26.4990295053442 4.499775836511749 3.104346666666668 0 0 0
303 2 28.057795995524472 3.5998203003261855 4.663254433269408 0 0 0
304 1 29.616562485704705 4.499775836511717 3.104346666666667 0 0 0
305 2 31.175328975884913 3.5998203003261975 4.663254433269399 0 0 0
306 1 32.73409546606509 4.499775836511774 3.104346666666658 0 0 0
307 1 35.8516284464256 4.499775836511729 3.1043466666666877 0 0 0
308 2 34.292861956245346 3.599820300326155 4.663254433269376 0 0 0
309 1 38.96916142678615 4.499775836511751 3.104346666666669 0 0 0
310 2 37.41039493660593 3.599820300326192 4.663254433269406 0 0 0
97 2 1.558765662461001 6.299685612878289 4.663254433269635 0 0 0
98 2 4.676298642820944 6.299685612878007 4.66325443326956 0 0 0
99 1 3.1175321526409614 7.199641149063632 3.1043466666667094 0 0 0
100 1 6.235065133000735 7.199641149063722 3.104346666666659 0 0 0
101 2 7.793831623181078 6.299685612878234 4.663254433269265 0 0 0
102 1 9.352598113361918 7.199641149063619 3.1043466666666846 0 0 0
103 2 10.911364603542411 6.299685612878093 4.663254433269434 0 0 0
104 1 12.470131093722316 7.199641149063821 3.1043466666666713 0 0 0
105 2 14.028897583902163 6.2996856128781165 4.663254433269472 0 0 0
106 1 15.587664074082316 7.19964114906366 3.104346666666678 0 0 0
107 2 17.146430564262655 6.299685612878107 4.663254433269365 0 0 0
108 2 20.263963544623277 6.299685612878065 4.663254433269422 0 0 0
109 1 18.705197054442994 7.199641149063639 3.1043466666666553 0 0 0
110 1 21.822730034803506 7.199641149063663 3.104346666666678 0 0 0
111 2 23.381496524983714 6.2996856128780685 4.663254433269389 0 0 0
112 1 24.94026301516394 7.199641149063677 3.1043466666666553 0 0 0
311 2 26.49902950534418 6.299685612878076 4.6632544332694135 0 0 0
312 1 28.057795995524465 7.199641149063649 3.1043466666666766 0 0 0
313 2 29.616562485704655 6.2996856128780205 4.663254433269402 0 0 0
314 1 31.17532897588489 7.199641149063653 3.1043466666666797 0 0 0
315 2 32.73409546606512 6.2996856128781005 4.6632544332694215 0 0 0
316 2 35.85162844642568 6.299685612878065 4.663254433269398 0 0 0
317 1 34.292861956245446 7.199641149063643 3.104346666666683 0 0 0
318 1 37.410394936605954 7.199641149063653 3.1043466666666686 0 0 0
319 2 38.96916142678618 6.29968561287808 4.663254433269383 0 0 0
113 1 1.5587656624609292 9.89950646161528 3.104346666666583 0 0 0
114 1 4.676298642821066 9.899506461615726 3.1043466666666752 0 0 0
115 2 3.117532152641661 8.999550925429903 4.663254433269618 0 0 0
116 1 7.793831623181261 9.899506461615568 3.1043466666666872 0 0 0
117 2 6.23506513300084 8.99955092542994 4.663254433269482 0 0 0
118 2 9.352598113362083 8.999550925430206 4.663254433269357 0 0 0
119 1 10.911364603542392 9.899506461615733 3.104346666666673 0 0 0
120 2 12.470131093722346 8.999550925429974 4.6632544332694685 0 0 0
121 1 14.028897583902188 9.899506461615756 3.1043466666666766 0 0 0
122 2 15.587664074082207 8.999550925430043 4.663254433269389 0 0 0
123 1 17.146430564262563 9.899506461615607 3.1043466666666686 0 0 0
124 1 20.263963544623273 9.899506461615694 3.104346666666672 0 0 0
125 2 18.70519705444295 8.999550925430036 4.663254433269361 0 0 0
126 1 23.3814965249837 9.899506461615694 3.1043466666666744 0 0 0
127 2 21.8227300348035 8.999550925430043 4.663254433269402 0 0 0
128 2 24.94026301516392 8.999550925430036 4.663254433269382 0 0 0
320 1 26.499029505344158 9.899506461615712 3.1043466666666713 0 0 0
321 2 28.05779599552437 8.999550925430068 4.663254433269386 0 0 0
322 1 29.616562485704627 9.899506461615685 3.1043466666666673 0 0 0
323 2 31.175328975884916 8.99955092543004 4.663254433269366 0 0 0
324 1 32.73409546606508 9.899506461615726 3.1043466666666966 0 0 0
325 1 35.85162844642566 9.899506461615626 3.104346666666657 0 0 0
326 2 34.29286195624541 8.999550925430052 4.663254433269398 0 0 0
327 1 38.96916142678618 9.899506461615674 3.1043466666666566 0 0 0
328 2 37.41039493660593 8.999550925430029 4.66325443326939 0 0 0
129 2 1.558765662460659 11.699416237982318 4.663254433268999 0 0 0
130 2 4.676298642821233 11.69941623798172 4.663254433269575 0 0 0
131 1 3.1175321526414663 12.59937177416789 3.1043466666666766 0 0 0
132 1 6.23506513300092 12.599371774167588 3.104346666666658 0 0 0
133 2 7.793831623181054 11.699416237982328 4.663254433269225 0 0 0
134 1 9.352598113361898 12.599371774167658 3.104346666666669 0 0 0
135 2 10.911364603542332 11.699416237982016 4.663254433269417 0 0 0
136 1 12.470131093722237 12.59937177416774 3.104346666666689 0 0 0
137 2 14.02889758390216 11.699416237982009 4.6632544332694525 0 0 0
138 1 15.58766407408227 12.599371774167562 3.104346666666673 0 0 0
139 2 17.146430564262634 11.69941623798204 4.663254433269387 0 0 0
140 2 20.26396354462332 11.699416237982009 4.663254433269427 0 0 0
141 1 18.705197054443012 12.599371774167581 3.10434666666669 0 0 0
142 1 21.822730034803534 12.59937177416765 3.104346666666676 0 0 0
143 2 23.381496524983678 11.69941623798207 4.663254433269406 0 0 0
144 1 24.940263015163907 12.599371774167636 3.1043466666666726 0 0 0
329 2 26.49902950534417 11.699416237982105 4.663254433269402 0 0 0
330 1 28.057795995524405 12.59937177416763 3.1043466666666655 0 0 0
331 2 29.616562485704648 11.69941623798204 4.663254433269402 0 0 0
332 1 31.175328975884913 12.599371774167603 3.1043466666666784 0 0 0
333 2 32.73409546606514 11.699416237982057 4.663254433269421 0 0 0
334 2 35.85162844642566 11.699416237982083 4.66325443326936 0 0 0
335 1 34.29286195624541 12.59937177416765 3.1043466666666655 0 0 0
336 1 37.41039493660586 12.599371774167636 3.1043466666666757 0 0 0
337 2 38.96916142678623 11.69941623798204 4.663254433269392 0 0 0
145 1 1.5587656624607962 15.299237086719346 3.1043466666666264 0 0 0
146 1 4.676298642821114 15.299237086719545 3.10434666666672 0 0 0
147 2 3.117532152641383 14.399281550534 4.6632544332695085 0 0 0
148 1 7.793831623181565 15.299237086719463 3.104346666666651 0 0 0
149 2 6.235065133001266 14.399281550533692 4.663254433269372 0 0 0
150 2 9.352598113362221 14.39928155053411 4.663254433269379 0 0 0
151 1 10.911364603542312 15.299237086719593 3.10434666666669 0 0 0
152 2 12.470131093722197 14.399281550533827 4.663254433269513 0 0 0
153 1 14.028897583902074 15.299237086719566 3.1043466666666686 0 0 0
154 2 15.587664074082213 14.399281550533939 4.663254433269359 0 0 0
155 1 17.146430564262605 15.299237086719423 3.1043466666666597 0 0 0
156 1 20.263963544623284 15.299237086719552 3.1043466666666717 0 0 0
157 2 18.70519705444299 14.39928155053398 4.66325443326938 0 0 0
158 1 23.381496524983678 15.299237086719545 3.104346666666679 0 0 0
159 2 21.82273003480349 14.399281550533923 4.663254433269438 0 0 0
160 2 24.940263015163907 14.399281550533939 4.663254433269403 0 0 0
338 1 26.499029505344172 15.299237086719504 3.104346666666675 0 0 0
339 2 28.057795995524433 14.399281550533951 4.663254433269403 0 0 0
340 1 29.61656248570467 15.299237086719533 3.1043466666666717 0 0 0
341 2 31.175328975884916 14.399281550533939 4.663254433269373 0 0 0
342 1 32.73409546606512 15.299237086719526 3.104346666666669 0 0 0
343 1 35.85162844642562 15.29923708671949 3.1043466666666575 0 0 0
344 2 34.292861956245346 14.399281550533916 4.663254433269431 0 0 0
345 1 38.96916142678625 15.29923708671951 3.104346666666671 0 0 0
346 2 37.41039493660593 14.39928155053398 4.6632544332693655 0 0 0
161 2 1.558765662461525 17.099146863085874 4.663254433269308 0 0 0
162 2 4.676298642821338 17.099146863085743 4.663254433269438 0 0 0
163 1 3.1175321526413406 17.999102399271795 3.1043466666666637 0 0 0
164 1 6.23506513300101 17.999102399271536 3.1043466666666637 0 0 0
165 2 7.793831623181123 17.099146863086098 4.663254433269308 0 0 0
166 1 9.352598113361804 17.999102399271404 3.1043466666666957 0 0 0
167 2 10.911364603542134 17.099146863085736 4.663254433269444 0 0 0
168 1 12.470131093722127 17.99910239927142 3.104346666666676 0 0 0
169 2 14.028897583902063 17.09914686308581 4.6632544332694 0 0 0
170 1 15.587664074082316 17.999102399271365 3.1043466666666713 0 0 0
171 2 17.146430564262673 17.099146863085846 4.663254433269363 0 0 0
172 2 20.263963544623355 17.09914686308584 4.663254433269377 0 0 0
173 1 18.70519705444306 17.999102399271393 3.1043466666666646 0 0 0
174 1 21.82273003480356 17.99910239927144 3.104346666666662 0 0 0
175 2 23.38149652498372 17.09914686308587 4.663254433269365 0 0 0
176 1 24.94026301516393 17.999102399271468 3.104346666666672 0 0 0
347 2 26.499029505344126 17.09914686308588 4.663254433269389 0 0 0
348 1 28.05779599552438 17.999102399271433 3.104346666666669 0 0 0
349 2 29.616562485704666 17.099146863085824 4.663254433269376 0 0 0
350 1 31.175328975884987 17.99910239927141 3.1043466666666863 0 0 0
351 2 32.73409546606512 17.09914686308583 4.663254433269398 0 0 0
352 2 35.8516284464256 17.099146863085853 4.663254433269351 0 0 0
353 1 34.292861956245424 17.999102399271454 3.10434666666667 0 0 0
354 1 37.410394936605854 17.999102399271433 3.1043466666666593 0 0 0
355 2 38.96916142678615 17.099146863085874 4.663254433269379 0 0 0
177 1 1.558765662461445 20.69896771182363 3.1043466666666304 0 0 0
178 1 4.676298642820974 20.698967711823514 3.1043466666666566 0 0 0
179 2 3.1175321526413877 19.799012175638207 4.663254433269483 0 0 0
180 1 7.793831623181447 20.69896771182333 3.104346666666702 0 0 0
181 2 6.235065133000836 19.799012175637774 4.663254433269365 0 0 0
182 2 9.352598113362221 19.799012175637884 4.663254433269397 0 0 0
183 1 10.911364603542383 20.698967711823375 3.1043466666666832 0 0 0
184 2 12.470131093722243 19.799012175637632 4.663254433269493 0 0 0
185 1 14.028897583902143 20.69896771182347 3.10434666666667 0 0 0
186 2 15.587664074082207 19.799012175637795 4.663254433269387 0 0 0
187 1 17.14643056426268 20.698967711823347 3.1043466666666726 0 0 0
188 1 20.26396354462332 20.698967711823375 3.1043466666666752 0 0 0
189 2 18.70519705444306 19.799012175637824 4.66325443326938 0 0 0
190 1 23.38149652498368 20.698967711823396 3.1043466666666766 0 0 0
191 2 21.82273003480354 19.799012175637838 4.663254433269411 0 0 0
192 2 24.940263015163914 19.799012175637802 4.663254433269422 0 0 0
356 1 26.49902950534418 20.698967711823396 3.1043466666666792 0 0 0
357 2 28.05779599552443 19.79901217563781 4.663254433269422 0 0 0
358 1 29.616562485704666 20.698967711823432 3.1043466666666704 0 0 0
359 2 31.175328975884916 19.799012175637852 4.663254433269372 0 0 0
360 1 32.73409546606512 20.698967711823446 3.104346666666658 0 0 0
361 1 35.85162844642565 20.698967711823403 3.1043466666666775 0 0 0
362 2 34.292861956245396 19.799012175637802 4.663254433269406 0 0 0
363 1 38.969161426786215 20.698967711823418 3.104346666666683 0 0 0
364 2 37.41039493660599 19.799012175637838 4.663254433269405 0 0 0
217 2 1.5587656624610013 22.498877488190022 4.663254433269593 0 0 0
218 2 4.676298642820911 22.498877488189436 4.663254433269373 0 0 0
219 1 3.117532152641091 23.39883302437571 3.1043466666666846 0 0 0
220 1 6.235065133000834 23.398833024375303 3.1043466666666633 0 0 0
221 2 7.793831623181064 22.49887748819001 4.6632544332693175 0 0 0
222 1 9.352598113361774 23.39883302437526 3.1043466666666917 0 0 0
223 2 10.911364603542134 22.498877488189628 4.663254433269426 0 0 0
224 1 12.470131093722127 23.3988330243754 3.104346666666673 0 0 0
225 2 14.028897583902149 22.49887748818972 4.663254433269404 0 0 0
226 1 15.587664074082365 23.3988330243753 3.104346666666668 0 0 0
227 2 17.146430564262673 22.498877488189763 4.663254433269367 0 0 0
228 2 20.263963544623337 22.498877488189724 4.663254433269414 0 0 0
229 1 18.705197054443133 23.398833024375303 3.104346666666671 0 0 0
230 1 21.822730034803552 23.3988330243753 3.1043466666666686 0 0 0
231 2 23.381496524983717 22.49887748818971 4.663254433269405 0 0 0
232 1 24.94026301516399 23.3988330243753 3.104346666666657 0 0 0
379 2 26.49902950534418 22.498877488189724 4.663254433269376 0 0 0
380 1 28.057795995524394 23.398833024375342 3.1043466666666895 0 0 0
381 2 29.616562485704627 22.498877488189777 4.663254433269413 0 0 0
382 1 31.175328975884874 23.398833024375328 3.104346666666653 0 0 0
383 2 32.73409546606514 22.498877488189805 4.6632544332693815 0 0 0
384 2 35.851628446425735 22.498877488189777 4.663254433269393 0 0 0
385 1 34.29286195624539 23.39883302437537 3.1043466666666726 0 0 0
386 1 37.41039493660592 23.39883302437538 3.1043466666666486 0 0 0
387 2 38.96916142678619 22.498877488189816 4.663254433269403 0 0 0
233 1 1.5587656624606663 26.098698336926805 3.104346666666715 0 0 0
234 1 4.676298642821344 26.09869833692752 3.1043466666666646 0 0 0
235 2 3.1175321526418713 25.198742800742036 4.663254433269458 0 0 0
236 1 7.793831623181396 26.09869833692712 3.104346666666632 0 0 0
237 2 6.235065133000994 25.1987428007416 4.663254433269396 0 0 0
238 2 9.352598113361958 25.198742800741748 4.663254433269377 0 0 0
239 1 10.911364603542223 26.09869833692718 3.104346666666685 0 0 0
240 2 12.470131093722163 25.19874280074149 4.6632544332694685 0 0 0
241 1 14.028897583902108 26.098698336927246 3.1043466666666713 0 0 0
242 2 15.58766407408227 25.198742800741734 4.663254433269379 0 0 0
243 1 17.146430564262655 26.09869833692716 3.1043466666666566 0 0 0
244 1 20.263963544623298 26.098698336927313 3.10434666666668 0 0 0
245 2 18.70519705444306 25.19874280074172 4.663254433269343 0 0 0
246 1 23.3814965249837 26.0986983369273 3.104346666666673 0 0 0
247 2 21.8227300348035 25.198742800741666 4.663254433269423 0 0 0
248 2 24.9402630151639 25.19874280074165 4.663254433269385 0 0 0
388 1 26.49902950534415 26.09869833692726 3.104346666666673 0 0 0
389 2 28.057795995524412 25.19874280074168 4.663254433269436 0 0 0
390 1 29.616562485704705 26.098698336927203 3.1043466666666824 0 0 0
391 2 31.175328975884916 25.19874280074162 4.663254433269387 0 0 0
392 1 32.73409546606512 26.098698336927285 3.1043466666666832 0 0 0
393 1 35.85162844642568 26.098698336927214 3.104346666666681 0 0 0
394 2 34.292861956245424 25.198742800741666 4.663254433269433 0 0 0
395 1 38.96916142678623 26.098698336927246 3.104346666666682 0 0 0
396 2 37.41039493660593 25.198742800741694 4.663254433269378 0 0 0
249 2 1.5587656624606872 27.89860811329394 4.663254433269438 0 0 0
250 2 4.676298642820986 27.89860811329336 4.663254433269546 0 0 0
251 2 7.7938316231811235 27.898608113293868 4.663254433269205 0 0 0
252 2 10.911364603542323 27.898608113293484 4.663254433269437 0 0 0
253 2 14.028897583902198 27.89860811329354 4.663254433269422 0 0 0
254 2 17.146430564262722 27.898608113293648 4.663254433269358 0 0 0
255 2 20.263963544623337 27.898608113293648 4.663254433269411 0 0 0
256 2 23.38149652498376 27.898608113293662 4.6632544332693575 0 0 0
397 2 26.49902950534418 27.898608113293623 4.663254433269393 0 0 0
398 2 29.616562485704634 27.89860811329359 4.663254433269398 0 0 0
399 2 32.7340954660652 27.898608113293662 4.6632544332693975 0 0 0
400 2 35.85162844642568 27.898608113293623 4.663254433269406 0 0 0
401 2 38.96916142678609 27.898608113293662 4.663254433269375 0 0 0
402 3 3.117532152641339 30.59847342584573 1.5454389000638558 0 0 0
403 3 6.235065133000861 30.598473425845224 1.5454389000638087 0 0 0
404 3 9.352598113361953 30.598473425845633 1.5454389000639799 0 0 0
405 3 12.470131093722145 30.59847342584555 1.5454389000638706 0 0 0
406 3 15.587664074082323 30.598473425845675 1.5454389000639415 0 0 0
407 3 18.705197054443072 30.59847342584558 1.5454389000639597 0 0 0
408 3 21.82273003480352 30.598473425845594 1.5454389000639213 0 0 0
409 3 24.94026301516389 30.598473425845523 1.5454389000639401 0 0 0
650 3 28.057795995524405 30.598473425845565 1.5454389000639754 0 0 0
651 3 31.175328975884902 30.598473425845594 1.5454389000639355 0 0 0
652 3 34.29286195624539 30.598473425845633 1.5454389000639768 0 0 0
653 3 37.41039493660593 30.598473425845622 1.545438900063934 0 0 0
410 3 1.5587656624609014 33.29833873839803 1.5454389000640554 0 0 0
411 3 4.676298642821091 33.29833873839747 1.5454389000638677 0 0 0
412 3 7.7938316231813305 33.298338738397675 1.5454389000640414 0 0 0
413 3 10.91136460354224 33.298338738397355 1.545438900063923 0 0 0
414 3 14.028897583902078 33.29833873839753 1.545438900063912 0 0 0
415 3 17.14643056426269 33.29833873839762 1.5454389000639825 0 0 0
416 3 20.263963544623323 33.29833873839748 1.545438900063954 0 0 0
417 3 23.381496524983742 33.298338738397504 1.545438900063942 0 0 0
654 3 26.499029505344218 33.29833873839747 1.5454389000639726 0 0 0
655 3 29.616562485704716 33.29833873839752 1.5454389000639261 0 0 0
656 3 32.73409546606522 33.29833873839747 1.5454389000639313 0 0 0
657 3 35.85162844642568 33.298338738397504 1.5454389000639317 0 0 0
658 3 38.96916142678614 33.29833873839748 1.5454389000639872 0 0 0
418 3 3.1175321526412842 35.99820405094944 1.5454389000637472 0 0 0
419 3 6.235065133000621 35.99820405094945 1.5454389000637636 0 0 0
420 3 9.352598113362156 35.998204050949546 1.545438900064038 0 0 0
421 3 12.470131093722445 35.99820405094937 1.545438900063852 0 0 0
422 3 15.587664074082323 35.99820405094945 1.5454389000639333 0 0 0
423 3 18.705197054443 35.99820405094946 1.545438900063947 0 0 0
424 3 21.82273003480352 35.998204050949546 1.5454389000639104 0 0 0
425 3 24.94026301516396 35.99820405094949 1.5454389000639464 0 0 0
659 3 28.05779599552447 35.99820405094943 1.54543890006393 0 0 0
660 3 31.17532897588491 35.99820405094943 1.545438900063956 0 0 0
661 3 34.29286195624541 35.99820405094944 1.5454389000639046 0 0 0
662 3 37.41039493660596 35.99820405094944 1.54543890006394 0 0 0
426 3 1.5587656624616593 38.69806936350171 1.5454389000640196 0 0 0
427 3 4.676298642820919 38.69806936350094 1.5454389000639037 0 0 0
428 3 7.793831623181206 38.69806936350164 1.5454389000640483 0 0 0
429 3 10.911364603542172 38.69806936350136 1.5454389000639213 0 0 0
430 3 14.028897583902127 38.698069363501375 1.5454389000639397 0 0 0