LAMMPS data file via write_data, version 2 Aug 2023, timestep = 1002, units = metal

18880 atoms
3 atom types

0 623.5074289182786 xlo xhi
0 86.39577624199772 ylo yhi
0 50 zlo zhi
0 0 0 xy xz yz

Masses

1 95.94
2 32.065
3 32.065

Atoms # atomic

1 3 1.5587677445716848 0.8999559224498814 1.5454396291519075 0 0 0
2 3 4.676304889166364 0.8999559224493593 1.5454396291480068 0 0 0
3 3 7.793842033756524 0.8999559224499105 1.5454396291485106 0 0 0
4 3 10.911379178347769 0.899955922449934 1.5454396291484844 0 0 0
5 3 14.028916322939658 0.8999559224497854 1.5454396291486194 0 0 0
6 3 17.14645346753092 0.8999559224499675 1.545439629148349 0 0 0
7 3 20.263990612122456 0.899955922449659 1.5454396291483192 0 0 0
8 3 23.38152775671355 0.8999559224491297 1.5454396291485468 0 0 0
257 3 26.499064901304838 0.8999559224495289 1.5454396291489172 0 0 0
258 3 29.6166020458968 0.8999559224496599 1.5454396291485117 0 0 0
259 3 32.734139190487895 0.8999559224494663 1.545439629148414 0 0 0
260 3 35.851676335079134 0.8999559224493927 1.5454396291489343 0 0 0
261 3 38.969213479670415 0.899955922448958 1.545439629148841 0 0 0
9 3 3.1175363168703396 3.599823930014206 1.545439629150049 0 0 0
10 3 6.235073461461817 3.5998239300122665 1.545439629147756 0 0 0
11 3 9.352610606051938 3.599823930012468 1.5454396291482886 0 0 0
12 3 12.470147750644035 3.599823930012566 1.5454396291484007 0 0 0
13 3 15.587684895235327 3.599823930012544 1.545439629148251 0 0 0
14 3 18.705222039826577 3.599823930012564 1.5454396291484571 0 0 0
15 3 21.822759184417936 3.5998239300127235 1.5454396291483197 0 0 0
16 3 24.94029632900913 3.5998239300125863 1.54543962914819 0 0 0
262 3 28.057833473600475 3.59982393001279 1.5454396291487151 0 0 0
263 3 31.17537061819222 3.59982393001259 1.545439629148109 0 0 0
264 3 34.29290776278366 3.59982393001258 1.5454396291483223 0 0 0
265 3 37.41044490737502 3.599823930012835 1.5454396291482404 0 0 0
17 3 1.5587677445696075 6.299691937576069 1.5454396291500658 0 0 0
18 3 4.676304889165873 6.299691937575398 1.5454396291475827 0 0 0
19 3 7.7938420337565 6.299691937574619 1.5454396291483707 0 0 0
20 3 10.911379178347774 6.299691937574928 1.545439629148403 0 0 0
21 3 14.028916322939454 6.299691937575113 1.545439629148407 0 0 0
22 3 17.14645346753091 6.299691937575236 1.5454396291483936 0 0 0
23 3 20.26399061212244 6.299691937574952 1.5454396291483803 0 0 0
24 3 23.381527756713847 6.299691937575116 1.5454396291483303 0 0 0
266 3 26.49906490130495 6.299691937574928 1.545439629148357 0 0 0
267 3 29.61660204589675 6.299691937574802 1.5454396291484611 0 0 0
268 3 32.734139190487724 6.29969193757501 1.5454396291481927 0 0 0
269 3 35.85167633507965 6.299691937574928 1.5454396291486272 0 0 0
270 3 38.96921347967099 6.299691937575024 1.5454396291483863 0 0 0
25 3 3.117536316868152 8.999559945137898 1.5454396291494295 0 0 0
26 3 6.235073461461927 8.999559945137065 1.5454396291484431 0 0 0
27 3 9.352610606052068 8.999559945137364 1.5454396291484738 0 0 0
28 3 12.470147750644024 8.999559945137445 1.5454396291484362 0 0 0
29 3 15.587684895235029 8.99955994513712 1.5454396291481678 0 0 0
30 3 18.70522203982638 8.999559945137324 1.5454396291483945 0 0 0
31 3 21.82275918441827 8.999559945137129 1.5454396291484152 0 0 0
32 3 24.940296329009268 8.999559945137298 1.5454396291484025 0 0 0
271 3 28.057833473600716 8.999559945137202 1.5454396291482642 0 0 0
272 3 31.175370618192733 8.999559945137294 1.545439629148457 0 0 0
273 3 34.292907762783514 8.999559945137213 1.545439629148387 0 0 0
274 3 37.41044490737509 8.999559945137353 1.5454396291485843 0 0 0
33 3 1.5587677445710069 11.699427952697961 1.545439629148987 0 0 0
34 3 4.676304889165445 11.699427952699839 1.5454396291483858 0 0 0
35 3 7.793842033756581 11.699427952699839 1.5454396291485044 0 0 0
36 3 10.911379178347897 11.699427952700008 1.5454396291484611 0 0 0
37 3 14.028916322939384 11.69942795269975 1.5454396291483903 0 0 0
38 3 17.14645346753105 11.699427952699843 1.545439629148459 0 0 0
39 3 20.26399061212231 11.699427952699702 1.5454396291485268 0 0 0
40 3 23.381527756713748 11.699427952699743 1.545439629148412 0 0 0
275 3 26.49906490130498 11.699427952699768 1.5454396291484092 0 0 0
276 3 29.616602045896514 11.699427952699727 1.545439629148496 0 0 0
277 3 32.734139190487824 11.699427952699871 1.5454396291484702 0 0 0
278 3 35.851676335079965 11.699427952699686 1.545439629148254 0 0 0
279 3 38.96921347967075 11.699427952699665 1.5454396291483303 0 0 0
41 3 3.117536316870402 14.39929596026276 1.5454396291499457 0 0 0
42 3 6.235073461461117 14.399295960262151 1.5454396291479715 0 0 0
43 3 9.352610606052096 14.39929596026224 1.5454396291483288 0 0 0
44 3 12.47014775064357 14.399295960262096 1.5454396291484351 0 0 0
45 3 15.587684895235197 14.399295960262185 1.5454396291482848 0 0 0
46 3 18.705222039826335 14.39929596026189 1.5454396291482684 0 0 0
47 3 21.822759184418132 14.399295960262215 1.5454396291482888 0 0 0
48 3 24.940296329009247 14.399295960262199 1.5454396291484602 0 0 0
280 3 28.057833473600677 14.399295960262304 1.5454396291484322 0 0 0
281 3 31.175370618192694 14.399295960261911 1.5454396291485784 0 0 0
282 3 34.29290776278371 14.399295960262185 1.5454396291482106 0 0 0
283 3 37.41044490737499 14.399295960262089 1.5454396291484263 0 0 0
49 3 1.5587677445723518 17.099163967824982 1.5454396291507833 0 0 0
50 3 4.676304889165802 17.099163967824303 1.5454396291477703 0 0 0
51 3 7.793842033756436 17.09916396782451 1.5454396291484913 0 0 0
52 3 10.911379178347856 17.099163967824886 1.545439629148581 0 0 0
53 3 14.028916322939514 17.099163967825078 1.5454396291483288 0 0 0
54 3 17.146453467531 17.099163967824865 1.5454396291485224 0 0 0
55 3 20.263990612122264 17.099163967824616 1.5454396291483938 0 0 0
56 3 23.381527756713687 17.09916396782476 1.5454396291483419 0 0 0
284 3 26.49906490130502 17.099163967824968 1.5454396291485795 0 0 0
285 3 29.616602045896514 17.09916396782459 1.5454396291485089 0 0 0
286 3 32.73413919048774 17.09916396782455 1.5454396291482477 0 0 0
287 3 35.85167633507985 17.099163967824726 1.5454396291485064 0 0 0
288 3 38.96921347967119 17.099163967825007 1.5454396291484485 0 0 0
57 3 3.117536316869078 19.799031975387415 1.5454396291484074 0 0 0
58 3 6.235073461461823 19.79903197538665 1.5454396291486674 0 0 0
59 3 9.352610606052155 19.79903197538685 1.5454396291485615 0 0 0
60 3 12.470147750643616 19.79903197538709 1.5454396291484562 0 0 0
61 3 15.587684895235206 19.79903197538707 1.5454396291483072 0 0 0
62 3 18.7052220398265 19.79903197538692 1.5454396291485624 0 0 0
63 3 21.822759184418146 19.79903197538676 1.5454396291485015 0 0 0
64 3 24.9402963290096 19.799031975386974 1.5454396291484598 0 0 0
289 3 28.057833473600873 19.799031975386775 1.5454396291482304 0 0 0
290 3 31.17537061819287 19.799031975386974 1.545439629148483 0 0 0
291 3 34.292907762783585 19.799031975387337 1.5454396291483419 0 0 0
292 3 37.41044490737547 19.799031975387226 1.5454396291483452 0 0 0
193 3 1.5587677445704138 22.498899982950455 1.5454396291515755 0 0 0
194 3 4.676304889166736 22.498899982950167 1.54543962914792 0 0 0
195 3 7.7938420337563805 22.49889998294915 1.5454396291483812 0 0 0
196 3 10.91137917834802 22.498899982949055 1.5454396291483656 0 0 0
197 3 14.028916322939772 22.49889998294941 1.5454396291481933 0 0 0
198 3 17.14645346753089 22.49889998294955 1.5454396291484902 0 0 0
199 3 20.26399061212239 22.498899982949357 1.5454396291482704 0 0 0
200 3 23.381527756713513 22.49889998294948 1.5454396291484125 0 0 0
365 3 26.499064901305104 22.498899982949766 1.5454396291483008 0 0 0
366 3 29.61660204589673 22.498899982949847 1.5454396291485135 0 0 0
367 3 32.734139190487774 22.498899982949695 1.5454396291483328 0 0 0
368 3 35.85167633507989 22.498899982949165 1.5454396291480041 0 0 0
369 3 38.969213479670316 22.498899982949386 1.5454396291485 0 0 0
201 3 3.117536316869476 25.198767990513236 1.5454396291486514 0 0 0
202 3 6.235073461461077 25.198767990512003 1.545439629148505 0 0 0
203 3 9.352610606051933 25.198767990511634 1.545439629148396 0 0 0
204 3 12.47014775064362 25.198767990511783 1.5454396291485197 0 0 0
205 3 15.587684895235396 25.198767990511975 1.5454396291483385 0 0 0
206 3 18.705222039826182 25.198767990511687 1.545439629148326 0 0 0
207 3 21.82275918441809 25.198767990511975 1.5454396291483177 0 0 0
208 3 24.94029632900936 25.198767990511755 1.5454396291485246 0 0 0
370 3 28.057833473600777 25.19876799051183 1.5454396291485657 0 0 0
371 3 31.175370618192236 25.198767990511673 1.5454396291483585 0 0 0
372 3 34.2929077627835 25.19876799051196 1.5454396291482713 0 0 0
373 3 37.41044490737537 25.19876799051218 1.545439629148478 0 0 0
209 3 1.5587677445747719 27.898635998073242 1.5454396291504646 0 0 0
210 3 4.676304889166307 27.89863599807494 1.545439629148041 0 0 0
211 3 7.7938420337559045 27.898635998074543 1.545439629148565 0 0 0
212 3 10.911379178348353 27.89863599807422 1.5454396291484152 0 0 0
213 3 14.028916322939777 27.898635998074408 1.5454396291483896 0 0 0
214 3 17.1464534675307 27.898635998074283 1.5454396291483414 0 0 0
215 3 20.263990612122264 27.89863599807445 1.545439629148321 0 0 0
216 3 23.381527756713556 27.898635998074987 1.545439629148545 0 0 0
374 3 26.499064901305047 27.898635998074504 1.5454396291484913 0 0 0
375 3 29.61660204589659 27.89863599807435 1.5454396291484922 0 0 0
376 3 32.734139190488015 27.898635998074383 1.545439629148117 0 0 0
377 3 35.85167633507991 27.898635998074397 1.5454396291484476 0 0 0
378 3 38.96921347967096 27.89863599807419 1.5454396291481998 0 0 0
65 2 1.5587677445726236 0.8999559224505893 4.663253704184723 0 0 0
66 2 4.6763048891650945 0.8999559224502544 4.663253704184336 0 0 0
67 1 3.117536316870243 1.7999122479548109 3.1043466666668076 0 0 0
68 1 6.235073461461211 1.799912247954713 3.104346666666462 0 0 0
69 2 7.793842033756351 0.8999559224500099 4.663253704185061 0 0 0
70 1 9.352610606052151 1.7999122479545204 3.1043466666667676 0 0 0
71 2 10.911379178347868 0.8999559224500334 4.663253704185215 0 0 0
72 1 12.470147750643639 1.799912247954409 3.1043466666667 0 0 0
73 2 14.02891632293922 0.8999559224499011 4.66325370418505 0 0 0
74 1 15.587684895235267 1.7999122479546326 3.1043466666667254 0 0 0
75 2 17.146453467530836 0.8999559224498981 4.663253704185124 0 0 0
76 2 20.263990612122264 0.8999559224495546 4.663253704184806 0 0 0
77 1 18.705222039826488 1.7999122479543592 3.1043466666666997 0 0 0
78 1 21.822759184417936 1.7999122479545013 3.104346666666615 0 0 0
79 2 23.38152775671385 0.8999559224491772 4.66325370418451 0 0 0
80 1 24.940296329009428 1.7999122479546068 3.104346666666613 0 0 0
293 2 26.49906490130498 0.899955922449256 4.663253704184685 0 0 0
294 1 28.057833473600475 1.7999122479544347 3.1043466666667516 0 0 0
295 2 29.616602045896553 0.8999559224497289 4.663253704184697 0 0 0
296 1 31.175370618192794 1.7999122479547243 3.1043466666665633 0 0 0
297 2 32.734139190487994 0.899955922449686 4.663253704184895 0 0 0
298 2 35.85167633507965 0.8999559224495028 4.663253704184873 0 0 0
299 1 34.292907762784296 1.7999122479544734 3.104346666666786 0 0 0
300 1 37.41044490737545 1.7999122479543868 3.104346666666641 0 0 0
301 2 38.969213479670685 0.8999559224490874 4.663253704184668 0 0 0
81 1 1.5587677445720518 4.499780255516215 3.1043466666692576 0 0 0
82 1 4.6763048891653005 4.4997802555169875 3.10434666666681 0 0 0
83 2 3.1175363168700216 3.599823930010875 4.663253704187713 0 0 0
84 1 7.793842033756545 4.49978025551703 3.1043466666665562 0 0 0
85 2 6.23507346146063 3.599823930012585 4.663253704184588 0 0 0
86 2 9.352610606051956 3.599823930012456 4.6632537041849185 0 0 0
87 1 10.911379178347767 4.499780255516989 3.1043466666665975 0 0 0
88 2 12.470147750644111 3.5998239300124943 4.663253704184882 0 0 0
89 1 14.028916322939445 4.499780255517059 3.1043466666666886 0 0 0
90 2 15.587684895235178 3.5998239300124544 4.6632537041851405 0 0 0
91 1 17.146453467531 4.49978025551724 3.1043466666667143 0 0 0
92 1 20.263990612121667 4.499780255517186 3.1043466666667148 0 0 0
93 2 18.70522203982662 3.599823930012645 4.663253704184992 0 0 0
94 1 23.38152775671327 4.499780255517072 3.1043466666666513 0 0 0
95 2 21.82275918441795 3.599823930012583 4.663253704185149 0 0 0
96 2 24.94029632900919 3.5998239300126174 4.663253704184925 0 0 0
302 1 26.499064901305367 4.499780255517125 3.1043466666666726 0 0 0
303 2 28.057833473600734 3.599823930012924 4.663253704185044 0 0 0
304 1 29.616602045896233 4.499780255517164 3.1043466666667716 0 0 0
305 2 31.175370618192048 3.5998239300122625 4.663253704185028 0 0 0
306 1 32.73413919048881 4.499780255517107 3.1043466666665873 0 0 0
307 1 35.85167633507975 4.499780255517203 3.1043466666667188 0 0 0
308 2 34.29290776278356 3.599823930012614 4.663253704185058 0 0 0
309 1 38.96921347967118 4.499780255516847 3.104346666666514 0 0 0
310 2 37.410444907374824 3.599823930012821 4.663253704184896 0 0 0
97 2 1.5587677445690675 6.299691937579544 4.663253704184249 0 0 0
98 2 4.676304889165655 6.299691937574266 4.663253704184421 0 0 0
99 1 3.1175363168700168 7.199648263079086 3.1043466666661472 0 0 0
100 1 6.235073461461301 7.1996482630796415 3.104346666666601 0 0 0
101 2 7.793842033756505 6.299691937574619 4.663253704184932 0 0 0
102 1 9.352610606052309 7.199648263079361 3.1043466666666553 0 0 0
103 2 10.91137917834781 6.2996919375748694 4.663253704184887 0 0 0
104 1 12.470147750643964 7.199648263079621 3.104346666666724 0 0 0
105 2 14.028916322939434 6.299691937575134 4.663253704185099 0 0 0
106 1 15.587684895235267 7.199648263079474 3.1043466666666792 0 0 0
107 2 17.14645346753082 6.29969193757513 4.6632537041850215 0 0 0
108 2 20.26399061212231 6.299691937574962 4.6632537041849735 0 0 0
109 1 18.705222039826207 7.199648263079385 3.1043466666666824 0 0 0
110 1 21.82275918441783 7.199648263079652 3.10434666666666 0 0 0
111 2 23.381527756713865 6.2996919375751546 4.663253704184941 0 0 0
112 1 24.9402963290094 7.199648263079204 3.104346666666633 0 0 0
311 2 26.499064901305026 6.299691937574812 4.663253704184919 0 0 0
312 1 28.057833473600827 7.199648263079395 3.104346666666695 0 0 0
313 2 29.61660204589671 6.299691937574962 4.663253704185147 0 0 0
314 1 31.175370618192773 7.199648263079512 3.1043466666666673 0 0 0
315 2 32.73413919048774 6.2996919375750275 4.6632537041848705 0 0 0
316 2 35.85167633507971 6.29969193757499 4.663253704185141 0 0 0
317 1 34.29290776278431 7.199648263079292 3.1043466666666624 0 0 0
318 1 37.41044490737469 7.199648263079237 3.104346666666847 0 0 0
319 2 38.969213479670664 6.299691937574884 4.663253704185011 0 0 0
113 1 1.5587677445626216 9.899516270636493 3.104346666666914 0 0 0
114 1 4.676304889165705 9.899516270642769 3.1043466666670674 0 0 0
115 2 3.1175363168682337 8.999559945136886 4.663253704184432 0 0 0
116 1 7.793842033756758 9.899516270642367 3.1043466666667934 0 0 0
117 2 6.2350734614621315 8.999559945137092 4.663253704185343 0 0 0
118 2 9.35261060605209 8.999559945137284 4.663253704184976 0 0 0
119 1 10.911379178347758 9.899516270642076 3.104346666666726 0 0 0
120 2 12.470147750644072 8.999559945137397 4.663253704184986 0 0 0
121 1 14.028916322939594 9.899516270642097 3.1043466666666193 0 0 0
122 2 15.587684895234988 8.999559945137205 4.663253704184959 0 0 0
123 1 17.146453467531035 9.899516270641854 3.1043466666665775 0 0 0
124 1 20.26399061212176 9.899516270641985 3.104346666666729 0 0 0
125 2 18.705222039826577 8.999559945137309 4.663253704184988 0 0 0
126 1 23.381527756713336 9.899516270641938 3.104346666666683 0 0 0
127 2 21.82275918441833 8.999559945137095 4.663253704184881 0 0 0
128 2 24.940296329009286 8.999559945137356 4.663253704184936 0 0 0
320 1 26.49906490130474 9.899516270642067 3.1043466666666553 0 0 0
321 2 28.057833473600688 8.999559945137158 4.663253704185021 0 0 0
322 1 29.616602045896393 9.89951627064192 3.104346666666665 0 0 0
323 2 31.17537061819265 8.999559945137412 4.663253704184941 0 0 0
324 1 32.734139190488115 9.89951627064175 3.1043466666667032 0 0 0
325 1 35.8516763350808 9.899516270642133 3.104346666666622 0 0 0
326 2 34.29290776278368 8.999559945137133 4.663253704184915 0 0 0
327 1 38.96921347967132 9.899516270642032 3.104346666666673 0 0 0
328 2 37.410444907375165 8.99955994513725 4.663253704184936 0 0 0
129 2 1.5587677445711894 11.699427952701337 4.663253704183036 0 0 0
130 2 4.6763048891655785 11.699427952700344 4.663253704184941 0 0 0
131 1 3.117536316870743 12.599384278204532 3.1043466666664608 0 0 0
132 1 6.235073461461276 12.599384278204777 3.1043466666665687 0 0 0
133 2 7.793842033756401 11.699427952699981 4.663253704184872 0 0 0
134 1 9.352610606052032 12.599384278204571 3.104346666666657 0 0 0
135 2 10.911379178347827 11.699427952699981 4.663253704184929 0 0 0
136 1 12.470147750643669 12.599384278204614 3.1043466666666855 0 0 0
137 2 14.02891632293932 11.69942795269985 4.663253704184977 0 0 0
138 1 15.587684895235107 12.599384278204386 3.104346666666692 0 0 0
139 2 17.14645346753106 11.699427952699727 4.663253704184752 0 0 0
140 2 20.263990612122296 11.699427952699782 4.663253704185077 0 0 0
141 1 18.705222039826424 12.599384278204361 3.1043466666666912 0 0 0
142 1 21.82275918441799 12.59938427820442 3.104346666666719 0 0 0
143 2 23.381527756713826 11.699427952699795 4.663253704185127 0 0 0
144 1 24.940296329009186 12.599384278204338 3.1043466666666877 0 0 0
329 2 26.49906490130498 11.69942795269979 4.6632537041848945 0 0 0
330 1 28.057833473600912 12.599384278204209 3.1043466666666966 0 0 0
331 2 29.616602045896393 11.69942795269968 4.663253704185006 0 0 0
332 1 31.17537061819327 12.599384278204502 3.104346666666734 0 0 0
333 2 32.73413919048745 11.699427952699864 4.663253704184805 0 0 0
334 2 35.85167633507983 11.699427952699864 4.663253704184872 0 0 0
335 1 34.29290776278425 12.599384278204361 3.1043466666665696 0 0 0
336 1 37.410444907374696 12.599384278204202 3.10434666666669 0 0 0
337 2 38.96921347967086 11.699427952699798 4.6632537041851485 0 0 0
145 1 1.5587677445681176 15.299252285764638 3.104346666668898 0 0 0
146 1 4.676304889165591 15.299252285767153 3.1043466666670154 0 0 0
147 2 3.117536316871477 14.399295960260828 4.663253704187926 0 0 0
148 1 7.793842033756317 15.299252285766674 3.104346666666629 0 0 0
149 2 6.235073461460809 14.399295960262412 4.663253704184831 0 0 0
150 2 9.352610606052002 14.399295960262137 4.663253704185024 0 0 0
151 1 10.91137917834738 15.299252285766405 3.104346666666708 0 0 0
152 2 12.470147750643516 14.39929596026213 4.663253704185 0 0 0
153 1 14.028916322939335 15.29925228576631 3.1043466666666912 0 0 0
154 2 15.587684895235109 14.399295960262158 4.663253704185157 0 0 0
155 1 17.14645346753086 15.299252285766386 3.1043466666666593 0 0 0
156 1 20.26399061212248 15.299252285767023 3.104346666666589 0 0 0
157 2 18.705222039826335 14.399295960261968 4.663253704184914 0 0 0
158 1 23.38152775671351 15.29925228576666 3.104346666666637 0 0 0
159 2 21.82275918441817 14.399295960261918 4.663253704184978 0 0 0
160 2 24.940296329009247 14.399295960262064 4.663253704184898 0 0 0
338 1 26.49906490130508 15.29925228576642 3.104346666666661 0 0 0
339 2 28.057833473600617 14.399295960262398 4.663253704184962 0 0 0
340 1 29.61660204589663 15.299252285767107 3.1043466666666917 0 0 0
341 2 31.175370618192634 14.399295960262055 4.663253704184954 0 0 0
342 1 32.734139190487774 15.299252285766666 3.104346666666652 0 0 0
343 1 35.851676335080384 15.299252285766832 3.104346666666713 0 0 0
344 2 34.29290776278377 14.399295960262117 4.663253704184962 0 0 0
345 1 38.96921347967099 15.29925228576692 3.104346666666731 0 0 0
346 2 37.41044490737503 14.399295960262137 4.663253704185044 0 0 0
161 2 1.5587677445716432 17.099163967829107 4.66325370418533 0 0 0
162 2 4.676304889165469 17.09916396782404 4.663253704184908 0 0 0
163 1 3.1175363168701287 17.999120293329074 3.104346666666368 0 0 0
164 1 6.235073461460983 17.999120293329497 3.104346666666698 0 0 0
165 2 7.793842033756326 17.099163967824783 4.663253704184901 0 0 0
166 1 9.352610606052043 17.999120293329067 3.1043466666667308 0 0 0
167 2 10.911379178347905 17.099163967824836 4.663253704184863 0 0 0
168 1 12.470147750643584 17.99912029332886 3.1043466666666393 0 0 0
169 2 14.028916322939326 17.099163967824932 4.663253704184908 0 0 0
170 1 15.58768489523475 17.99912029332924 3.1043466666665998 0 0 0
171 2 17.146453467530886 17.099163967824836 4.6632537041849185 0 0 0
172 2 20.263990612121997 17.0991639678248 4.663253704184775 0 0 0
173 1 18.705222039826594 17.999120293329234 3.1043466666667645 0 0 0
174 1 21.82275918441823 17.999120293329533 3.104346666666591 0 0 0
175 2 23.38152775671371 17.099163967824904 4.6632537041847115 0 0 0
176 1 24.94029632900925 17.99912029332875 3.1043466666666455 0 0 0
347 2 26.499064901305037 17.09916396782494 4.663253704184746 0 0 0
348 1 28.057833473600617 17.999120293329455 3.1043466666666872 0 0 0
349 2 29.61660204589651 17.099163967824513 4.663253704184841 0 0 0
350 1 31.17537061819301 17.99912029332935 3.1043466666666966 0 0 0
351 2 32.734139190487674 17.099163967824527 4.663253704185103 0 0 0
352 2 35.85167633507981 17.09916396782474 4.6632537041850295 0 0 0
353 1 34.29290776278401 17.999120293329277 3.104346666666713 0 0 0
354 1 37.4104449073743 17.99912029332874 3.1043466666666464 0 0 0
355 2 38.96921347967104 17.099163967824953 4.663253704184958 0 0 0
177 1 1.5587677445672012 20.69898830088864 3.104346666666292 0 0 0
178 1 4.676304889165675 20.69898830089101 3.1043466666667596 0 0 0
179 2 3.1175363168689616 19.79903197538646 4.663253704184383 0 0 0
180 1 7.7938420337571905 20.698988300891507 3.104346666666792 0 0 0
181 2 6.235073461461922 19.799031975386598 4.663253704185033 0 0 0
182 2 9.352610606052076 19.799031975386754 4.663253704184958 0 0 0
183 1 10.911379178347985 20.698988300891365 3.1043466666666695 0 0 0
184 2 12.470147750643589 19.799031975387166 4.663253704184845 0 0 0
185 1 14.028916322939091 20.69898830089144 3.104346666666652 0 0 0
186 2 15.587684895235217 19.799031975386967 4.6632537041848305 0 0 0
187 1 17.14645346753078 20.698988300891934 3.1043466666667263 0 0 0
188 1 20.263990612121976 20.698988300892353 3.1043466666667676 0 0 0
189 2 18.705222039826463 19.799031975387035 4.663253704185187 0 0 0
190 1 23.38152775671349 20.698988300891536 3.1043466666666966 0 0 0
191 2 21.822759184418086 19.79903197538685 4.6632537041850295 0 0 0
192 2 24.9402963290096 19.799031975387003 4.663253704185055 0 0 0
356 1 26.499064901304376 20.698988300891628 3.1043466666667356 0 0 0
357 2 28.057833473600773 19.799031975386693 4.6632537041853075 0 0 0
358 1 29.616602045896393 20.698988300891905 3.104346666666758 0 0 0
359 2 31.175370618192886 19.79903197538707 4.663253704185021 0 0 0
360 1 32.734139190488094 20.69898830089122 3.1043466666666344 0 0 0
361 1 35.85167633507943 20.698988300892022 3.1043466666666664 0 0 0
362 2 34.29290776278371 19.799031975387166 4.663253704184964 0 0 0
363 1 38.96921347967152 20.698988300891262 3.104346666666663 0 0 0
364 2 37.41044490737557 19.799031975387262 4.663253704184873 0 0 0
217 2 1.5587677445704893 22.498899982950217 4.663253704181431 0 0 0
218 2 4.676304889166715 22.4988999829503 4.663253704185369 0 0 0
219 1 3.117536316870537 23.398856308454377 3.1043466666665434 0 0 0
220 1 6.2350734614615195 23.398856308454445 3.104346666666689 0 0 0
221 2 7.793842033756421 22.498899982949148 4.663253704184986 0 0 0
222 1 9.352610606052174 23.39885630845454 3.1043466666666935 0 0 0
223 2 10.911379178347993 22.49889998294881 4.663253704185089 0 0 0
224 1 12.470147750644156 23.398856308454267 3.1043466666666393 0 0 0
225 2 14.028916322939686 22.4988999829496 4.663253704185063 0 0 0
226 1 15.587684895235167 23.39885630845435 3.1043466666667037 0 0 0
227 2 17.14645346753078 22.498899982949467 4.663253704185082 0 0 0
228 2 20.263990612122086 22.498899982949215 4.663253704184855 0 0 0
229 1 18.705222039825983 23.39885630845398 3.104346666666639 0 0 0
230 1 21.82275918441807 23.398856308453773 3.1043466666665913 0 0 0
231 2 23.381527756713474 22.498899982949645 4.663253704184799 0 0 0
232 1 24.94029632900945 23.39885630845365 3.104346666666636 0 0 0
379 2 26.499064901305157 22.498899982949478 4.6632537041849185 0 0 0
380 1 28.057833473600855 23.398856308453404 3.1043466666665895 0 0 0
381 2 29.616602045896453 22.498899982949464 4.663253704184911 0 0 0
382 1 31.17537061819293 23.39885630845369 3.1043466666667077 0 0 0
383 2 32.734139190487745 22.498899982949602 4.66325370418495 0 0 0
384 2 35.85167633507991 22.49889998294937 4.663253704185219 0 0 0
385 1 34.292907762783365 23.398856308454224 3.104346666666683 0 0 0
386 1 37.41044490737525 23.39885630845376 3.10434666666656 0 0 0
387 2 38.96921347967079 22.498899982949766 4.663253704185083 0 0 0
233 1 1.5587677445704244 26.09872431601415 3.1043466666665687 0 0 0
234 1 4.67630488916578 26.098724316017247 3.1043466666668063 0 0 0
235 2 3.117536316869632 25.198767990512756 4.663253704184932 0 0 0
236 1 7.793842033756378 26.098724316016916 3.104346666666775 0 0 0
237 2 6.235073461461137 25.19876799051199 4.663253704185093 0 0 0
238 2 9.352610606051886 25.198767990511577 4.663253704184918 0 0 0
239 1 10.911379178348211 26.098724316016796 3.104346666666599 0 0 0
240 2 12.470147750643807 25.19876799051177 4.66325370418473 0 0 0
241 1 14.028916322939281 26.098724316016888 3.10434666666668 0 0 0
242 2 15.587684895235308 25.19876799051203 4.663253704185029 0 0 0
243 1 17.14645346753125 26.098724316017098 3.1043466666667063 0 0 0
244 1 20.26399061212277 26.098724316016412 3.1043466666666433 0 0 0
245 2 18.70522203982615 25.19876799051176 4.663253704185021 0 0 0
246 1 23.38152775671363 26.098724316015947 3.1043466666666757 0 0 0
247 2 21.822759184418132 25.198767990511946 4.663253704184931 0 0 0
248 2 24.94029632900931 25.19876799051185 4.663253704184885 0 0 0
388 1 26.49906490130525 26.098724316016835 3.1043466666667348 0 0 0
389 2 28.057833473600635 25.198767990511953 4.663253704184764 0 0 0
390 1 29.616602045896432 26.098724316017098 3.104346666666646 0 0 0
391 2 31.17537061819243 25.19876799051194 4.663253704184854 0 0 0
392 1 32.734139190488314 26.09872431601678 3.1043466666666024 0 0 0
393 1 35.85167633507945 26.09872431601648 3.1043466666667823 0 0 0
394 2 34.292907762784274 25.19876799051194 4.6632537041851405 0 0 0
395 1 38.96921347967029 26.098724316017396 3.104346666666711 0 0 0
396 2 37.41044490737568 25.198767990511673 4.663253704184947 0 0 0
249 2 1.5587677445747887 27.898635998073615 4.663253704183035 0 0 0
250 2 4.676304889166245 27.89863599807489 4.66325370418509 0 0 0
401 2 38.96921347967039 27.898635998074337 4.6632537041848945 0 0 0
251 2 7.793842033755975 27.8986359980746 4.663253704185008 0 0 0
400 2 35.85167633507955 27.898635998074614 4.663253704185165 0 0 0
399 2 32.73413919048808 27.898635998074354 4.663253704184955 0 0 0
252 2 10.911379178348303 27.89863599807434 4.663253704184777 0 0 0
398 2 29.616602045896748 27.89863599807412 4.66325370418473 0 0 0
253 2 14.028916322939821 27.898635998074383 4.663253704185004 0 0 0
397 2 26.499064901305065 27.898635998074603 4.663253704184932 0 0 0
254 2 17.14645346753078 27.89863599807416 4.663253704185148 0 0 0
255 2 20.263990612122374 27.89863599807448 4.663253704185008 0 0 0
256 2 23.381527756713588 27.898635998074905 4.663253704184916 0 0 0
402 3 3.117536316872437 30.598504005636467 1.5454396291472579 0 0 0
403 3 6.235073461459722 30.59850400563685 1.5454396291484374 0 0 0
404 3 9.352610606051917 30.598504005637015 1.5454396291483818 0 0 0
405 3 12.47014775064334 30.59850400563681 1.5454396291482624 0 0 0
406 3 15.587684895235466 30.598504005636933 1.5454396291482846 0 0 0
407 3 18.70522203982635 30.598504005637167 1.5454396291484043 0 0 0
408 3 21.822759184417617 30.598504005636645 1.545439629148305 0 0 0
409 3 24.940296329009307 30.598504005637086 1.5454396291482637 0 0 0
650 3 28.057833473600535 30.59850400563674 1.5454396291480295 0 0 0
651 3 31.17537061819218 30.598504005636276 1.5454396291485006 0 0 0
652 3 34.29290776278389 30.598504005636727 1.5454396291481736 0 0 0
653 3 37.410444907375684 30.59850400563703 1.5454396291486958 0 0 0
410 3 1.5587677445691586 33.29837201320304 1.5454396291495176 0 0 0
411 3 4.6763048891652685 33.298372013198716 1.5454396291483263 0 0 0
412 3 7.793842033756014 33.29837201319964 1.5454396291484802 0 0 0
413 3 10.911379178347927 33.2983720131998 1.5454396291486578 0 0 0
414 3 14.028916322939564 33.298372013199625 1.5454396291484358 0 0 0
415 3 17.146453467530936 33.29837201319989 1.5454396291485495 0 0 0
416 3 20.26399061212228 33.298372013199725 1.5454396291485817 0 0 0
417 3 23.38152775671361 33.2983720131996 1.545439629148479 0 0 0
654 3 26.499064901305147 33.29837201319993 1.545439629148463 0 0 0
655 3 29.616602045896492 33.298372013199845 1.5454396291484784 0 0 0
656 3 32.73413919048787 33.298372013199454 1.5454396291487271 0 0 0
657 3 35.85167633507995 33.29837201319987 1.545439629148232 0 0 0
658 3 38.96921347967127 33.29837201319966 1.5454396291486925 0 0 0
418 3 3.117536316870434 35.998240020760996 1.545439629148025 0 0 0
419 3 6.235073461461614 35.99824002076093 1.5454396291482224 0 0 0
420 3 9.352610606052002 35.99824002076156 1.545439629148195 0 0 0
421 3 12.470147750643667 35.99824002076166 1.5454396291484378 0 0 0
422 3 15.587684895235224 35.99824002076159 1.5454396291483026 0 0 0
423 3 18.70522203982635 35.99824002076189 1.545439629148247 0 0 0
424 3 21.822759184417713 35.99824002076157 1.5454396291483543 0 0 0
425 3 24.94029632900946 35.99824002076154 1.5454396291482575 0 0 0
659 3 28.057833473600795 35.99824002076187 1.5454396291485124 0 0 0
660 3 31.175370618192645 35.99824002076122 1.5454396291480916 0 0 0
661 3 34.29290776278413 35.99824002076168 1.5454396291483692 0 0 0
662 3 37.41044490737534 35.998240020761486 1.5454396291486183 0 0 0
426 3 1.5587677445725827 38.698108028324576 1.5454396291485157 0 0 0
427 3 4.676304889165912 38.698108028324384 1.5454396291484473 0 0 0
428 3 7.793842033756545 38.698108028324995 1.5454396291485653 0 0 0
429 3 10.911379178347518 38.6981080283246 1.545439629148588 0 0 0