LAMMPS data file via write_data, version 21 Nov 2023, timestep = 173, units = metal

18592 atoms
3 atom types

0 623.5064515041926 xlo xhi
0 86.39558946130981 ylo yhi
0 50 zlo zhi
0 0 0 xy xz yz

Masses

1 95.94
2 32.065
3 32.065

Atoms # atomic

18592 3 1.558765718077592 0.8999272997883081 1.5454808995603337 0 0 0
13566 3 4.6762997510794 0.8999160718698319 1.5454874939064345 0 0 0
13567 3 7.793845257740156 0.8998835274976467 1.5455228857407368 0 0 0
13568 3 10.91135120961392 0.8998630024106642 1.5455385474763073 0 0 0
13569 3 14.0288810432582 0.8998932942703596 1.5455148278017743 0 0 0
13570 3 17.146411963565328 0.8998995478216518 1.545499244127718 0 0 0
13571 3 20.263956491552506 0.8999124713823686 1.5454944290488404 0 0 0
13572 3 23.381493937956524 0.8998891107179308 1.545517562357401 0 0 0
13133 3 26.498996380006464 0.8999018265899069 1.5455014724149472 0 0 0
13134 3 29.616536894203726 0.8999471549237108 1.5454519660897366 0 0 0
13135 3 32.73407975903813 0.8999597846988447 1.545428962644288 0 0 0
13136 3 35.85162019024832 0.8999643412496375 1.545416729106678 0 0 0
12001 2 37.41039469233787 25.19869418338913 4.663333277599226 0 0 0
13573 3 3.117525386192321 3.599805929748069 1.5454658545138131 0 0 0
13574 3 6.23506016224165 3.5997868595311724 1.5454649629810397 0 0 0
13575 3 9.352590213077645 3.599773609682566 1.5454678048261559 0 0 0
13576 3 12.470118064313207 3.5997661940180365 1.5454652959083872 0 0 0
13578 3 15.587654443189665 3.599777807623147 1.5454605356200775 0 0 0
13590 3 18.705189462154863 3.5997847557128124 1.5454580762318053 0 0 0
13579 3 21.822726767912656 3.5997817462524675 1.5454638699081436 0 0 0
13580 3 24.940253627765408 3.5997899974600576 1.5454667740447299 0 0 0
13142 3 28.05777991706194 3.5997999294276957 1.5454580372630553 0 0 0
13143 3 31.175321748470825 3.5998234263152287 1.5454469500540768 0 0 0
13119 3 34.29285838341315 3.599833176713854 1.5454421664236866 0 0 0
13118 3 37.4103968627477 3.599842239179938 1.5454402592928993 0 0 0
13581 3 1.5587564716804925 6.2996952670622735 1.5454819156418957 0 0 0
13582 3 4.676274475822096 6.299690316944851 1.5454692822779064 0 0 0
13583 3 7.793811843728503 6.299667729422795 1.5454517820405997 0 0 0
13584 3 10.911350748581425 6.299657360308802 1.5454392249488338 0 0 0
13585 3 14.028888916994728 6.299655283803955 1.5454348445573003 0 0 0
13586 3 17.14642822114884 6.299662104485127 1.5454380275784407 0 0 0
13587 3 20.263961515932493 6.299664561436824 1.5454452482453553 0 0 0
13588 3 23.381492973710422 6.299669033595315 1.5454526155653305 0 0 0
13095 3 26.49902343266201 6.299674747917058 1.5454560295804824 0 0 0
13096 3 29.616563164983265 6.299683674812783 1.545457398686426 0 0 0
13097 3 32.734106483577364 6.299702284306532 1.5454662301312676 0 0 0
13098 3 35.851638922180534 6.299711385676546 1.5454764925390077 0 0 0
11642 2 1.5587644805528469 27.898578114838724 4.663256270490848 0 0 0
13589 3 3.1174837645780675 8.9995940373075 1.5455353021370601 0 0 0
13565 3 6.23502507851431 8.999556659554218 1.5454788392199017 0 0 0
13577 3 9.352572022961064 8.999540073011332 1.5454437176808626 0 0 0
13564 3 12.470120242655266 8.999533878056141 1.5454292181795246 0 0 0
13549 3 15.587664937146107 8.999536368861536 1.5454335395691314 0 0 0
13538 3 18.705205611258968 8.999547692840402 1.5454480724114266 0 0 0
13539 3 21.822729319789683 8.999548975703357 1.5454588860443876 0 0 0
13540 3 24.940252301211974 8.999552536770455 1.5454640524255898 0 0 0
13104 3 28.057796028539386 8.999548706832108 1.5454642689452687 0 0 0
13105 3 31.175344988584868 8.99955422681991 1.545478611842673 0 0 0
13106 3 34.292902740746065 8.999586963693925 1.545522709738243 0 0 0
13107 3 37.41039724282843 8.99959905728328 1.5455519907446906 0 0 0
13541 3 1.5587315377777315 11.699444775580119 1.545477196314542 0 0 0
13542 3 4.67621266381118 11.69943289926198 1.5455534996154712 0 0 0
13543 3 7.793781644011922 11.699412206388072 1.5454724229046024 0 0 0
13544 3 10.91134185828642 11.699403309234677 1.545437130459312 0 0 0
13545 3 14.028896714085787 11.699402507662203 1.5454341314795301 0 0 0
13546 3 17.14644408214672 11.69940820397528 1.5454541849340124 0 0 0
13547 3 20.263989723088784 11.699434345900606 1.5454956588672992 0 0 0
13548 3 23.381469345630833 11.699434726708983 1.5455023681799467 0 0 0
13013 3 26.499018725074595 11.69941053579092 1.5454739010828533 0 0 0
13014 3 29.61657573277435 11.699406297532375 1.5454734734291349 0 0 0
13015 3 32.734146869189 11.69941020435286 1.5455147095517296 0 0 0
13016 3 35.85166046544574 11.699408236421412 1.5454266923668865 0 0 0
11498 2 23.38149364588347 27.898574309919955 4.663270914900959 0 0 0
13550 3 3.1174285544652864 14.399254098207892 1.5456247293714647 0 0 0
13562 3 6.235001553012227 14.399267608763134 1.5455086002475755 0 0 0
13551 3 9.352563995984108 14.399265717750275 1.5454554998080348 0 0 0
13552 3 12.470121454767948 14.399264248965794 1.5454355155021002 0 0 0
13553 3 15.58767964821248 14.39926426392661 1.5454477911447146 0 0 0
13554 3 18.70524050284622 14.399269465387324 1.545496608256108 0 0 0
13555 3 21.82272895319933 14.399263037012865 1.5453890936633896 0 0 0
13556 3 24.94021841884649 14.399268866462997 1.5455029320935234 0 0 0
13022 3 28.057782472695596 14.39926214216344 1.5454647579597491 0 0 0
13023 3 31.17533921729306 14.399255710912517 1.5454665377441457 0 0 0
13024 3 34.29289173465472 14.399221962189369 1.545511969861074 0 0 0
13025 3 37.4104072795667 14.399218407121555 1.5455420428933337 0 0 0
13557 3 1.5586796417462536 17.0991033154034 1.5456569866364092 0 0 0
13558 3 4.6762318837090255 17.099107285876425 1.5455378691168558 0 0 0
13559 3 7.793789719942111 17.099118316295915 1.5454722786360946 0 0 0
13560 3 10.911346373749582 17.09912263531445 1.5454398195565262 0 0 0
13561 3 14.028897256926626 17.09912298936899 1.5454374011261378 0 0 0
13563 3 17.146442782998502 17.09911802767952 1.5454571218648037 0 0 0
13592 3 20.263978864893478 17.099082860566515 1.5455012686652096 0 0 0
13619 3 23.381476906050338 17.09908262203685 1.5454994329515521 0 0 0
13030 3 26.499017862683683 17.09911662920941 1.5454569955500974 0 0 0
13031 3 29.616563993709875 17.09912074047473 1.5454455038948194 0 0 0
13032 3 32.734109985722355 17.099110005935135 1.545454463908656 0 0 0
13008 3 35.851643788111126 17.099105589201628 1.5454762836296372 0 0 0
4977 1 5.1820678943339316e-05 12.599396129109499 3.104509333768817 1 0 0
13593 3 3.1174554483251864 19.79895139734522 1.5455606296065783 0 0 0
13622 3 6.235017255153435 19.798967757595666 1.5454797240020428 0 0 0
13623 3 9.352574450641795 19.798978818946377 1.5454407975506648 0 0 0
13624 3 12.470125335397832 19.79898423702362 1.545431357152563 0 0 0
13625 3 15.587667782312058 19.798983097538184 1.5454398237009694 0 0 0
13626 3 18.705205260468148 19.79896914100199 1.545456377914562 0 0 0
13627 3 21.82272679174347 19.79896782938028 1.5454625041050656 0 0 0
13628 3 24.940253351566486 19.798971651260057 1.5454489528219975 0 0 0
12984 3 28.057795292951454 19.798987254072493 1.5454356495931705 0 0 0
12985 3 31.17533883568942 19.798992263024353 1.5454366420028414 0 0 0
12986 3 34.29287326615982 19.798990087077943 1.5454489908879998 0 0 0
12987 3 37.41040701844225 19.798983320680282 1.5454635893578812 0 0 0
13629 3 1.5587258464998432 22.498776787180663 1.5455348629667558 0 0 0
13630 3 4.676264118229433 22.498819181528095 1.5454711363271145 0 0 0
13631 3 7.7938097941816284 22.498835660047313 1.5454374665408346 0 0 0
13632 3 10.911357049461438 22.498845854485097 1.545425150419152 0 0 0
13634 3 14.028899426011048 22.498849004687457 1.5454307352541048 0 0 0
13646 3 17.14643437472694 22.498846113529588 1.5454399713383848 0 0 0
13635 3 20.263964168892578 22.4988431253394 1.5454458435516403 0 0 0
13451 3 23.38149404875805 22.498846389839905 1.5454415158610826 0 0 0
12992 3 26.499031874586706 22.498855747570307 1.5454349592223149 0 0 0
12993 3 29.61657536648471 22.498867495539123 1.545440140361363 0 0 0
12994 3 32.73411592992544 22.49888286952055 1.5454572388959742 0 0 0
12995 3 35.851634160537046 22.498877863120782 1.545469899435603 0 0 0
12006 2 26.499025443382077 27.89856967889035 4.663281237788799 0 0 0
13450 3 3.1175040126368345 25.19867707826206 1.5454551479995464 0 0 0
13427 3 6.235048390691688 25.198697101000143 1.5454305079131938 0 0 0
13428 3 9.352591958256623 25.198709221796143 1.5454221019151275 0 0 0
13429 3 12.470133561147613 25.198716158072166 1.545427504041752 0 0 0
13430 3 15.587669612283491 25.19871905924281 1.5454384730175723 0 0 0
13431 3 18.705198435326082 25.198718665913667 1.545443131593471 0 0 0
13432 3 21.822730624214973 25.19871975181499 1.5454425471227313 0 0 0
13433 3 24.940267395581863 25.19872726794725 1.545440795272365 0 0 0
13001 3 28.057815422325433 25.19873729880782 1.5454526220748328 0 0 0
13002 3 31.17535971277614 25.19875344045009 1.5454845839780498 0 0 0
13003 3 34.29290036050874 25.198787287023265 1.5455362753375692 0 0 0
13004 3 37.41036329468941 25.198781521869698 1.5455363934315007 0 0 0
13434 3 1.5587438523763961 27.898556475685602 1.5454419496051375 0 0 0
13435 3 4.676282069899971 27.898563031680805 1.545423272900906 0 0 0
13436 3 7.793827254931793 27.89857213575297 1.5454184764629193 0 0 0
13437 3 10.911368576920628 27.898579454487347 1.545427203137251 0 0 0
13438 3 14.028907474701162 27.89858529476676 1.5454427988580628 0 0 0
13439 3 17.1464413150039 27.898594995351036 1.5454557032521143 0 0 0
13440 3 20.26396514272129 27.8985943484435 1.5454565005925878 0 0 0
13441 3 23.381496308803474 27.89860091632754 1.5454572128816144 0 0 0
13065 3 26.499048385254987 27.89860307790028 1.5454664639145894 0 0 0
13066 3 29.61660528986946 27.89861249760095 1.5455033279444748 0 0 0
13067 3 32.73416827617737 27.898632794736354 1.5455820524583304 0 0 0
13068 3 35.8516467912169 27.89864531204783 1.545501161647211 0 0 0
12010 2 34.29286293497046 25.19869753543075 4.663331245631915 0 0 0
11441 2 1.5587615835258217 0.8999627265622799 4.663297759743661 0 0 0
4454 1 3.1175306848609305 1.7998987567104539 3.1043813828296307 0 0 0
11442 2 4.676290124426371 0.8999572040796683 4.663303454561193 0 0 0
4453 1 6.2350631223600965 1.7998839209578859 3.1043899318396493 0 0 0
11443 2 7.793816684848499 0.8999574980306323 4.663318104572282 0 0 0
4451 1 9.352594205925781 1.7998896572745107 3.1044101715755783 0 0 0
4449 1 12.470120314090845 1.7998775804763716 3.1044062036881095 0 0 0
11444 2 10.91136005793776 0.8999576224920437 4.663331881727185 0 0 0
4448 1 15.587653306835529 1.7998879589990622 3.1043957851742294 0 0 0
11374 2 14.028893497233756 0.8999726445040214 4.663334541154367 0 0 0
11373 2 17.146424672373094 0.8999568756223264 4.66331276058855 0 0 0
4444 1 18.70518521483719 1.7998888909943824 3.104386196189987 0 0 0
11372 2 20.26395061849433 0.8999622803049213 4.663311187504039 0 0 0
4443 1 21.822721461775004 1.7998844455030194 3.1043922799432737 0 0 0
11371 2 23.38148324177414 0.8999574364769176 4.663312269885314 0 0 0
4441 1 24.94025115774118 1.7998975889596898 3.1043972421582513 0 0 0
4827 1 28.057780912637124 1.7998910103073684 3.104371832404743 0 0 0
12046 2 26.499030811440218 0.8999507255106806 4.663296816245555 0 0 0
4814 1 31.175318364370767 1.7999061887789283 3.1043474643575886 0 0 0
11858 2 29.616563981515316 0.8999508448608069 4.663268592108022 0 0 0
11786 2 32.73409372014754 0.8999454000218768 4.663243114438872 0 0 0
4811 1 34.2928553727237 1.7999089897176448 3.104334700891435 0 0 0
11787 2 35.85162709991914 0.8999440760520958 4.6632308295586 0 0 0
4810 1 37.41039192702597 1.7999113848427246 3.1043274793069013 0 0 0
11619 2 10.911355307490542 27.89857381856574 4.663241813147799 0 0 0
4440 1 1.5587620530468906 4.4997696916799805 3.1043755150907772 0 0 0
4439 1 4.67629432210885 4.499765838916387 3.1043679901054517 0 0 0
11304 2 3.117531121722563 3.599814253949213 4.663280019895018 0 0 0
4438 1 7.79382553103968 4.4997576898518545 3.1043649917727443 0 0 0
11305 2 6.235059711791524 3.5998119964582416 4.6632782858042106 0 0 0
11306 2 9.352592167839367 3.5998231406047108 4.663284995138119 0 0 0
4461 1 10.91135642996344 4.4997546579210885 3.1043606742314327 0 0 0
11307 2 12.470122636003815 3.5998182619540238 4.663278875070177 0 0 0
4462 1 14.028887344097807 4.499753226489788 3.104356501301554 0 0 0
11308 2 15.587657274123776 3.5998207379013003 4.663274784030284 0 0 0
4483 1 17.146422421248502 4.499757541756514 3.104356210468247 0 0 0
4482 1 20.263956244885847 4.499756359301337 3.104359580286111 0 0 0
11309 2 18.705186909689218 3.599815595709725 4.663272535569575 0 0 0
4480 1 23.38148815777862 4.499760291110075 3.1043657780582588 0 0 0
11310 2 21.822720567462323 3.5998145391170406 4.663277607519806 0 0 0
11311 2 24.940255088616485 3.5998211374854314 4.663283815082362 0 0 0
4830 1 26.499020080490286 4.4997638132747095 3.104366396715654 0 0 0
11793 2 28.057791278225395 3.599810062045434 4.66327152892984 0 0 0
4852 1 29.616553508761314 4.499766474083889 3.104358707742607 0 0 0
11794 2 31.175325765937878 3.599810764583361 4.663261162805258 0 0 0
4850 1 32.73409220229257 4.49977562543371 3.104357285223515 0 0 0
4849 1 35.85162687909801 4.499777133371143 3.104357843255543 0 0 0
11795 2 34.29286002805865 3.599806600734 4.663256533358226 0 0 0
11643 2 4.67629487059467 27.89857506512907 4.663237603747303 0 0 0
11797 2 37.41039267778195 3.599804271576412 4.6632545143393465 0 0 0
11312 2 1.5587623150338266 6.299666009792598 4.663298616414754 0 0 0
4476 1 3.117516428067585 7.199643312501325 3.1043956878860626 0 0 0
11313 2 4.676295784021003 6.299670153181035 4.663282787400904 0 0 0
4475 1 6.235054278497418 7.199631125530088 3.104370545813729 0 0 0
11315 2 7.79382990611802 6.299672354897526 4.663265929230743 0 0 0
4474 1 9.352588695348862 7.199625458511385 3.1043488075234618 0 0 0
4471 1 12.47012275903251 7.1996227870730864 3.1043382214145425 0 0 0
11326 2 10.91136081291902 6.299675595650369 4.663253668928349 0 0 0
4469 1 15.58765687784457 7.199622644666219 3.1043389877487133 0 0 0
11316 2 14.028889735356826 6.299675271366403 4.663249306113622 0 0 0
11317 2 17.146421582480766 6.299675429664764 4.663252642320645 0 0 0
4467 1 18.70519218096027 7.199626976524488 3.1043473053893127 0 0 0
11318 2 20.2639537568585 6.2996721792498125 4.663259515223002 0 0 0
4466 1 21.822723238783983 7.199627660229686 3.104355870924153 0 0 0
11319 2 23.381486067523564 6.29967431333955 4.663266966144965 0 0 0
4464 1 24.940255200948737 7.1996319297929725 3.1043628655416144 0 0 0
4837 1 28.057791283239393 7.199631843791519 3.1043645944809253 0 0 0
11816 2 26.499022965577193 6.2996763026233955 4.663270453418975 0 0 0
4836 1 31.1753280916935 7.19963545616666 3.104374135059491 0 0 0
11817 2 29.61655578636141 6.299671626479691 4.663271880590076 0 0 0
11818 2 32.734092926809815 6.299673193681878 4.663279991939703 0 0 0
4833 1 34.29287067536271 7.199645823790602 3.104389892671395 0 0 0
11819 2 35.85162249452037 6.299662664751637 4.663293315851406 0 0 0
4832 1 37.41039029692573 7.1996505346669135 3.104408892698975 0 0 0
3774 1 35.85163414220651 26.098781459409437 3.1044825622248626 0 0 0
4463 1 1.558753341033416 9.899600195217097 3.10447877211238 0 0 0
4538 1 4.676284710252782 9.899499861974808 3.1044260104101853 0 0 0
11320 2 3.117526620851005 8.999523375170407 4.663330006334666 0 0 0
4540 1 7.793816794932619 9.899494062278752 3.1043700939491172 0 0 0
11321 2 6.235073506271887 8.999526363244039 4.663295831191156 0 0 0
11322 2 9.352598968176435 8.999533878531272 4.663258278995929 0 0 0
4615 1 10.911354137056389 9.899490013718266 3.104340766105375 0 0 0
11323 2 12.470124035085252 8.999533568981496 4.663243832158186 0 0 0
4613 1 14.028890658959165 9.899488487575297 3.1043370238292964 0 0 0
11324 2 15.587652927568033 8.999530482852538 4.663247954111593 0 0 0
4611 1 17.146427071537925 9.899490207247455 3.1043510640442156 0 0 0
4610 1 20.263966815557463 9.899498549233092 3.1043694945029827 0 0 0
11325 2 18.70518911605738 8.999531466601814 4.663261724118112 0 0 0
4609 1 23.38148352044845 9.89950089490715 3.104378106600957 0 0 0
11303 2 21.822721257886254 8.999526852746435 4.663275853453523 0 0 0
11314 2 24.94025505537487 8.999536442723258 4.663277830849335 0 0 0
4770 1 26.49902449191072 9.899496016492453 3.1043742937617065 0 0 0
11825 2 28.057790810728683 8.999535827215455 4.66327885707444 0 0 0
4769 1 29.616563367777736 9.899496745229897 3.1043793233342485 0 0 0
11826 2 31.175318463042135 8.999534878461018 4.663295730913906 0 0 0
4767 1 32.73409849091635 9.899498251936658 3.1044093520225884 0 0 0
4766 1 35.85163413869814 9.899596249479176 3.1044635342452382 0 0 0
11827 2 34.292857503442576 8.999530513836884 4.663317424205043 0 0 0
11520 2 17.14643222724694 27.89857547961435 4.663269509984774 0 0 0
11828 2 37.41037870961796 8.999526568189983 4.6633490303020695 0 0 0
4604 1 3.1174287273399326 12.599315980280412 3.1045163411437127 0 0 0
11290 2 4.676310653231158 11.699397910215536 4.663349004380796 0 0 0
4603 1 6.2350357038475055 12.599361746451063 3.104413540899094 0 0 0
11280 2 7.793834488644819 11.699397364478658 4.663286007955216 0 0 0
4601 1 9.35258127325733 12.5993541180195 3.104359054816275 0 0 0
4599 1 12.470121884460006 12.599352391455307 3.104339395141312 0 0 0
11281 2 10.911361388824574 11.699396545381724 4.663251815281212 0 0 0
4597 1 15.587661223025565 12.599352728283836 3.104351614075113 0 0 0
11282 2 14.028885969292624 11.699395208046479 4.663248572693499 0 0 0
11283 2 17.14641383478348 11.699390594553002 4.663271370093272 0 0 0
4595 1 18.705194429693183 12.599353354783519 3.1043867972322925 0 0 0
11284 2 20.263958781195843 11.699388606033764 4.663290893983244 0 0 0
4605 1 21.822726138329262 12.599448925941314 3.104424542974992 0 0 0
11285 2 23.38148872307872 11.69939322439015 4.663297593097901 0 0 0
4619 1 24.940259726392398 12.599356473172596 3.104397355959578 0 0 0
4753 1 28.057796375244248 12.59935763491348 3.104376607958544 0 0 0
11762 2 26.49903472396647 11.699398902846374 4.663290943313992 0 0 0
4777 1 31.17534255703198 12.599361037820474 3.1043865841244793 0 0 0
11761 2 29.616563817516695 11.699407227388868 4.663287076325489 0 0 0
11713 2 32.73408956991405 11.699413592559827 4.663310317864464 0 0 0
4800 1 34.292950292882544 12.59931232806684 3.104443279683321 0 0 0
4799 1 37.41033421084211 12.599318468242235 3.1044794448187507 0 0 0
11573 2 7.79382333286548 27.898575325709274 4.663233003868074 0 0 0
4620 1 1.5586523812777708 15.29917637985649 3.1045649573126366 0 0 0
4643 1 4.676264319486863 15.299210919508356 3.1044550146796466 0 0 0
11286 2 3.117546246401093 14.399268586455223 4.663396872399705 0 0 0
4641 1 7.7938102866498085 15.299214791004424 3.1043841548368185 0 0 0
11287 2 6.235072492947486 14.399264443898119 4.6633250130703034 0 0 0
11288 2 9.352599623545062 14.399260863555455 4.663269891949305 0 0 0
4638 1 10.911353177475878 15.299214871787932 3.1043485990734214 0 0 0
11289 2 12.47012583016281 14.399259346166865 4.663249929964532 0 0 0
4636 1 14.028894759191461 15.299214207977094 3.104344580749531 0 0 0
11291 2 15.587654569937476 14.399261000947051 4.663261489708755 0 0 0
4634 1 17.146438770301618 15.299217855591207 3.1043701793299276 0 0 0
4633 1 20.264043565566155 15.299167655418803 3.104425954720729 0 0 0
11301 2 18.705184224994333 14.39926530049386 4.663291697417843 0 0 0
4631 1 23.3814120353407 15.299169861031443 3.104427086287244 0 0 0
11292 2 24.940268072591017 14.399271943850376 4.663298000581051 0 0 0
4801 1 26.49901711539305 15.29922149531685 3.1043769918579733 0 0 0
11696 2 28.05779575659924 14.39927257229125 4.6632783098948485 0 0 0
4788 1 29.616561513776244 15.299218947748345 3.1043631490728996 0 0 0
11697 2 31.17532342606446 14.399276238606257 4.663283258650786 0 0 0
4787 1 32.73410156773263 15.299209158831623 3.1043774098192825 0 0 0
4786 1 35.85163477333675 15.299218639408375 3.104411866496889 0 0 0
11698 2 34.29284907291951 14.399275774772027 4.663307065236257 0 0 0
11572 2 14.028890108738413 27.89857281993497 4.663257444252029 0 0 0
11699 2 37.410390778304695 14.39928082113225 4.663340008670547 0 0 0
11293 2 1.5587701536180405 17.099131415659198 4.663429425092785 0 0 0
4626 1 3.117508738287723 17.999060920483206 3.1044857155778294 0 0 0
11294 2 4.676315066268771 17.09912545135873 4.663357122448271 0 0 0
4625 1 6.235041912582322 17.99907181157626 3.104401944648652 0 0 0
11295 2 7.7938375382519265 17.09912841730689 4.663286676563866 0 0 0
4623 1 9.352583868129624 17.999075868151913 3.1043555394365536 0 0 0
4622 1 12.470123601648062 17.999077032011918 3.1043410885924594 0 0 0
11296 2 10.911361518848405 17.09912557720809 4.663254487266823 0 0 0
4594 1 15.587662084069994 17.99907654948622 3.104350255374384 0 0 0
11297 2 14.028888501062575 17.09912431939751 4.663251805004205 0 0 0
11298 2 17.14641724521499 17.099127379774373 4.6632741528585315 0 0 0
4591 1 18.705198848476552 17.999066274017927 3.1043754397926833 0 0 0
11299 2 20.26395316906688 17.099126898067524 4.663296494182211 0 0 0
4563 1 21.822728536927283 17.999077365101712 3.1043931399667684 0 0 0
11300 2 23.38150660862946 17.099131343731862 4.66329445778425 0 0 0
4561 1 24.94025883079554 17.9990693317934 3.1043701595096995 0 0 0
3669 1 28.057795519617457 17.999081673475153 3.104350447239049 0 0 0
11704 2 26.499037633253767 17.099136463164186 4.663273988827472 0 0 0
3667 1 31.175334168250135 17.999081695339417 3.1043485070696724 0 0 0
11705 2 29.616564657193795 17.099136635465992 4.6632596607834875 0 0 0
11706 2 32.734093023838504 17.09913415304743 4.663268234771563 0 0 0
3665 1 34.29286683564806 17.999081641543963 3.1043634827654842 0 0 0
11707 2 35.85162258480118 17.099145544806962 4.663293206999182 0 0 0
3664 1 37.410401296409425 17.999078368053727 3.1043829926695126 0 0 0
11497 2 20.263964671309697 27.898570091261337 4.663273497554968 0 0 0
4560 1 1.5586707333242569 20.698881938977227 3.104485594121719 0 0 0
4559 1 4.676270807245772 20.698933510672806 3.104404401510255 0 0 0
11302 2 3.1175406953321976 19.799003573418148 4.663355023448651 0 0 0
4557 1 7.7938143550490215 20.69893533766521 3.104356657270381 0 0 0
11327 2 6.235067776089697 19.798994990772854 4.663293484164683 0 0 0
11328 2 9.352596073387097 19.798990934919917 4.663255360818849 0 0 0
4555 1 10.911354910388201 20.698939142765674 3.1043366636908276 0 0 0
11329 2 12.470123507022482 19.798988869510477 4.663245821555925 0 0 0
4564 1 14.028893587248051 20.698940424074205 3.104339474146885 0 0 0
11348 2 15.587656049617454 19.798988788378132 4.663254324234762 0 0 0
4551 1 17.146431188612667 20.69893803968956 3.1043514692955365 0 0 0
4550 1 20.263963205299433 20.69893908936575 3.1043629088826052 0 0 0
11349 2 18.705191751405376 19.798989026418234 4.6632702470256016 0 0 0
4548 1 23.381495213525817 20.698940655423915 3.104357052307105 0 0 0
11350 2 21.822731647922446 19.799000857571844 4.663279817659416 0 0 0
11351 2 24.94026798374091 19.79899308426061 4.663262628059994 0 0 0
3655 1 26.49902807657914 20.69894307266871 3.104343227587129 0 0 0
11692 2 28.05779974132547 19.798995763855036 4.663250082499744 0 0 0
3653 1 29.616565662737628 20.698947709057748 3.1043398744535327 0 0 0
11691 2 31.175329935192902 19.798994885885627 4.663250896556805 0 0 0
3651 1 32.73410119502778 20.69895282891582 3.1043491283906657 0 0 0
3650 1 35.851633158566635 20.69894957189179 3.1043627665919784 0 0 0
11690 2 34.292858943641406 19.79899571053638 4.66326323103561 0 0 0
12008 2 32.73407236601614 27.898565138668054 4.6633773436281025 0 0 0
11672 2 37.41039332604077 19.798997477940453 4.663277776586516 0 0 0
11626 2 1.558774900850684 22.49886072495158 4.66333064107403 0 0 0
4289 1 3.1175161089054737 23.398783280207933 3.1043873641957993 0 0 0
11627 2 4.676304402335792 22.49885982306503 4.663287995725053 0 0 0
4302 1 6.235051547866304 23.398796545210296 3.104350810157628 0 0 0
11628 2 7.793830907855467 22.498854239125343 4.6632519525853535 0 0 0
4304 1 9.352588765560057 23.398800922579905 3.104332239481851 0 0 0
4326 1 12.470126337794301 23.39880382114456 3.104332410035815 0 0 0
11629 2 10.911358398660733 22.498851664161638 4.663239662258489 0 0 0
4324 1 15.587663321862198 23.398805025060597 3.104342812870286 0 0 0
11630 2 14.028890234204425 22.498851494230994 4.663245215343165 0 0 0
11631 2 17.146426746459902 22.498851372237652 4.663254651220176 0 0 0
4321 1 18.70519683165535 23.39880551975467 3.104349483257724 0 0 0
11633 2 20.263962391872404 22.49885602996545 4.663260610668011 0 0 0
4320 1 21.822730015111677 23.3988068543619 3.1043492551657277 0 0 0
11644 2 23.381500503366247 22.498856534916392 4.663256060531918 0 0 0
4318 1 24.940263807480513 23.398809683923133 3.1043429268113827 0 0 0
3635 1 28.057799104658706 23.398812226030724 3.1043458230145062 0 0 0
12037 2 26.499030612308452 22.498853229415655 4.663249344896282 0 0 0
3644 1 31.175335166706702 23.398816701745748 3.104363674780243 0 0 0
12038 2 29.616560056770407 22.498849457512847 4.663254446243383 0 0 0
12039 2 32.734094598659496 22.498849109243622 4.663270733788788 0 0 0
3631 1 34.29287418376364 23.39882671264039 3.10438679145735 0 0 0
12040 2 35.85162758771491 22.498843822432065 4.6632863400106 0 0 0
3630 1 37.41038799696647 23.398823916390725 3.104391476516862 0 0 0
12007 2 29.616552109463306 27.898568991126513 4.663317017621075 0 0 0
4317 1 1.5587527842396212 26.098655457404035 3.104364789311811 0 0 0
4316 1 4.676285474786338 26.098657685271426 3.104339373834557 0 0 0
11634 2 3.1175323790261276 25.19871638195819 4.6632688834010985 0 0 0
4314 1 7.793823071881443 26.098663608482767 3.1043284507001236 0 0 0
11635 2 6.235061986335429 25.198716161322988 4.663244836680424 0 0 0
11636 2 9.35259162155218 25.198712384149978 4.663236664252124 0 0 0
4312 1 10.911359926590274 26.09866672687263 3.104331050108403 0 0 0
11637 2 12.470123487566713 25.198711238412052 4.663242085804701 0 0 0
4310 1 14.02889665265493 26.098669203924057 3.1043427483883113 0 0 0
11638 2 15.587660314200141 25.198712448546498 4.663252958838555 0 0 0
4308 1 17.146432308609526 26.098673315842017 3.1043525758920603 0 0 0
4307 1 20.263964128948146 26.0986727155145 3.104352686221875 0 0 0
11639 2 18.705197336863666 25.19871278715952 4.663257821136632 0 0 0
4305 1 23.381496931804772 26.09867589905675 3.104350967889278 0 0 0
11640 2 21.82273136409111 25.198715070179574 4.663257140870938 0 0 0
11641 2 24.940263238558504 25.19871430371591 4.6632552456722065 0 0 0
3622 1 26.499033777549105 26.09867648616805 3.104356539211515 0 0 0
12033 2 28.057788711234178 25.198709224569733 4.663267159465232 0 0 0
3699 1 29.616570658554085 26.098679935762597 3.104385492290647 0 0 0
12022 2 31.175315417687568 25.198699242977202 4.663301706706219 0 0 0
3700 1 32.73410159725383 26.098683852415487 3.104436330088754 0 0 0
4250 1 3.1175212587361085 28.798524929441037 3.1043345064482586 0 0 0
13199 3 1.9864430974635596e-05 8.999597561562066 1.5455418668626375 1 0 0
4703 1 2.237020330694241e-06 7.199645700282086 3.10440186324437 1 0 0
3759 1 34.2929502693269 28.79850035340655 3.104553528729311 0 0 0
3772 1 38.969152217546224 26.09868398179988 3.1044386553700547 0 0 0
13069 3 38.96910699224447 27.898640399694518 1.5455880806276803 0 0 0
4247 1 9.352593307823595 28.798529780793864 3.1043290809980864 0 0 0
4248 1 6.235056407352753 28.798526658304805 3.104323267964767 0 0 0
13442 3 3.117515194420699 30.598436348913154 1.5454261984044662 0 0 0
13443 3 6.235057128373926 30.598439492554814 1.5454176257456225 0 0 0
13444 3 9.352600897769516 30.59844159780982 1.5454238991841496 0 0 0
13445 3 12.470141969858318 30.598445740941145 1.5454413807083716 0 0 0
13446 3 15.587680983534273 30.59845129388204 1.5454641692870539 0 0 0
13447 3 18.705225454562758 30.598478227369387 1.5454980833343088 0 0 0
13448 3 21.822711801489294 30.598481002348514 1.5455005854863442 0 0 0
13449 3 24.940272204146126 30.598462760080537 1.545486986695507 0 0 0
13074 3 28.057831089809444 30.59847273950388 1.5455141292122956 0 0 0
13075 3 31.175383703561934 30.598476862422803 1.545568557558129 0 0 0
13077 3 34.29293587387972 30.59845685724409 1.545682256739213 0 0 0
13089 3 37.410381012144995 30.598475719169627 1.5455768094327191 0 0 0
13465 3 1.558741115665608 33.29830949093114 1.5454420142377623 0 0 0
13479 3 4.676286591862023 33.29830755340698 1.5454257038005008 0 0 0
13480 3 7.793829504083368 33.29830826107474 1.5454233663804795 0 0 0
13481 3 10.911372238737368 33.29830703355273 1.5454348301722078 0 0 0
13510 3 14.028916323240772 33.2983073102672 1.5454554339011988 0 0 0
13511 3 17.146472597833785 33.298310568197685 1.5454978082659565 0 0 0
13512 3 20.263966786832736 33.29830445360138 1.54538494683276 0 0 0
13513 3 23.3814725948678 33.298312712856514 1.5455139359001075 0 0 0
13316 3 26.49905072350756 33.298313523989556 1.5455170166442955 0 0 0
13317 3 29.616626425661593 33.29833956737798 1.5455862853491298 0 0 0
13318 3 32.73414078034111 33.29835122308574 1.5456693645076791 0 0 0
13319 3 35.85165641913414 33.29829298082226 1.5457517817705875 0 0 0
7698 2 2.0702456104254737e-06 35.99815705940359 4.663288963422328 1 0 0
13514 3 3.117511138815003 35.998176697044286 1.545443194389234 0 0 0
13515 3 6.235057732497386 35.9981771129145 1.5454308261507301 0 0 0
13516 3 9.352598073199784 35.99817629397497 1.5454330965808762 0 0 0
13517 3 12.470134607106486 35.998171581508274 1.5454451087812644 0 0 0
13518 3 15.58767088985644 35.998164582590555 1.5454603199073456 0 0 0
13519 3 18.705211163790118 35.99812658144282 1.5454968633087445 0 0 0
13520 3 21.82272159489544 35.998124462898176 1.5455024082421667 0 0 0
13522 3 24.940282004769074 35.998153422797365 1.5454934882162579 0 0 0
13325 3 28.05785885544699 35.99815523599897 1.5455524823872597 0 0 0
13327 3 31.175371603922205 35.998140231031016 1.5454851616234973 0 0 0
13339 3 34.29286250510512 35.9981177830027 1.5455318207804243 0 0 0
13328 3 37.410356763128306 35.99808044438774 1.5456950530410978 0 0 0
13534 3 1.5587362220821843 38.69804062100683 1.5454706838041659 0 0 0
13523 3 4.676286665094701 38.69804589073778 1.5454510235559415 0 0 0
13524 3 7.79383279496219 38.69805576787709 1.5454480780631692 0 0 0