LAMMPS data file via write_data, version 2 Aug 2023, timestep = 1052, units = metal

19136 atoms
3 atom types

0 623.508287997069 xlo xhi
0 86.39585409442677 ylo yhi
0 50 zlo zhi
0 0 0 xy xz yz

Masses

1 95.94
2 32.065
3 32.065

Atoms # atomic

1 3 1.5587698922684945 0.8999568243216817 1.545440052043538 0 0 0
2 3 4.6763113322555565 0.8999568243272371 1.5454400520399787 0 0 0
3 3 7.793852772241577 0.8999568243277146 1.5454400520386276 0 0 0
4 3 10.911394212227153 0.8999568243251859 1.5454400520416356 0 0 0
5 3 14.028935652212049 0.8999568243270847 1.5454400520385243 0 0 0
6 3 17.14647709219753 0.8999568243256306 1.5454400520416478 0 0 0
7 3 20.264018532183325 0.8999568243271433 1.5454400520389533 0 0 0
8 3 23.3815599721686 0.8999568243273491 1.5454400520386868 0 0 0
385 3 26.499101412153088 0.8999568243267787 1.545440052038186 0 0 0
386 3 29.616642852137442 0.89995682432725 1.5454400520396132 0 0 0
387 3 32.73418429212424 0.8999568243256238 1.5454400520417628 0 0 0
9 3 3.1175406122648743 3.5998272647795546 1.5454400520390077 0 0 0
10 3 6.235082052249827 3.599827264778091 1.5454400520372653 0 0 0
11 3 9.352623492233633 3.5998272647786895 1.5454400520384481 0 0 0
12 3 12.470164932219964 3.5998272647785177 1.545440052038155 0 0 0
13 3 15.58770637220484 3.5998272647787255 1.545440052038395 0 0 0
14 3 18.70524781219049 3.599827264778698 1.545440052038427 0 0 0
15 3 21.822789252175326 3.5998272647783107 1.5454400520380318 0 0 0
16 3 24.94033069216053 3.599827264778428 1.5454400520385254 0 0 0
388 3 28.0578721321461 3.5998272647788623 1.54544005203755 0 0 0
389 3 31.17541357213041 3.599827264778643 1.5454400520382339 0 0 0
390 3 34.29295501211673 3.5998272647786114 1.5454400520391511 0 0 0
17 3 1.5587698922756223 6.299697705224604 1.5454400520330234 0 0 0
18 3 4.676311332254008 6.299697705229545 1.5454400520404612 0 0 0
19 3 7.793852772241843 6.299697705229639 1.545440052039016 0 0 0
20 3 10.911394212226742 6.299697705229438 1.5454400520383709 0 0 0
21 3 14.028935652212207 6.299697705229342 1.5454400520382139 0 0 0
22 3 17.146477092197248 6.299697705229153 1.5454400520381557 0 0 0
23 3 20.264018532182245 6.299697705229297 1.5454400520383738 0 0 0
24 3 23.3815599721684 6.299697705229466 1.5454400520390967 0 0 0
391 3 26.4991014121545 6.299697705228914 1.5454400520382263 0 0 0
392 3 29.61664285213833 6.299697705228993 1.5454400520370715 0 0 0
393 3 32.73418429212389 6.299697705229504 1.5454400520391756 0 0 0
25 3 3.117540612264977 8.999568145680835 1.545440052040065 0 0 0
26 3 6.235082052250593 8.999568145679662 1.545440052037682 0 0 0
27 3 9.352623492234002 8.999568145680595 1.545440052038081 0 0 0
28 3 12.470164932219705 8.99956814568031 1.545440052038169 0 0 0
29 3 15.58770637220479 8.999568145680495 1.5454400520383573 0 0 0
30 3 18.705247812189672 8.999568145680238 1.5454400520384355 0 0 0
31 3 21.822789252175276 8.999568145680628 1.545440052039131 0 0 0
32 3 24.94033069216039 8.999568145680255 1.5454400520381233 0 0 0
394 3 28.05787213214531 8.999568145680676 1.5454400520387124 0 0 0
395 3 31.175413572130367 8.999568145680056 1.5454400520385805 0 0 0
396 3 34.29295501211639 8.99956814568034 1.5454400520397873 0 0 0
33 3 1.5587698922661848 11.699438586127592 1.5454400520448932 0 0 0
34 3 4.676311332255121 11.699438586132178 1.5454400520397433 0 0 0
35 3 7.793852772241268 11.69943858613132 1.5454400520382516 0 0 0
36 3 10.911394212226767 11.699438586131325 1.5454400520378877 0 0 0
37 3 14.028935652212217 11.699438586131249 1.5454400520377605 0 0 0
38 3 17.146477092197028 11.699438586131267 1.5454400520380127 0 0 0
39 3 20.264018532182682 11.699438586131297 1.5454400520381415 0 0 0
40 3 23.381559972168052 11.699438586131814 1.545440052037681 0 0 0
397 3 26.499101412153106 11.699438586130963 1.5454400520372742 0 0 0
398 3 29.616642852137357 11.699438586131018 1.545440052037395 0 0 0
399 3 32.73418429212362 11.69943858613202 1.545440052038582 0 0 0
41 3 3.117540612264999 14.399309026583024 1.5454400520397222 0 0 0
42 3 6.235082052249758 14.399309026580948 1.5454400520378362 0 0 0
43 3 9.352623492234406 14.39930902658177 1.5454400520385638 0 0 0
44 3 12.470164932219825 14.399309026581578 1.54544005203809 0 0 0
45 3 15.587706372204847 14.39930902658205 1.5454400520379903 0 0 0
46 3 18.70524781218993 14.399309026581902 1.545440052038521 0 0 0
47 3 21.82278925217515 14.39930902658196 1.5454400520378628 0 0 0
48 3 24.940330692160043 14.399309026581758 1.5454400520385936 0 0 0
400 3 28.05787213214626 14.399309026582065 1.5454400520383895 0 0 0
401 3 31.17541357213102 14.399309026581061 1.5454400520376594 0 0 0
402 3 34.29295501211514 14.399309026581507 1.5454400520380847 0 0 0
49 3 1.5587698922667623 17.099179467030947 1.5454400520431795 0 0 0
50 3 4.676311332255897 17.099179467032997 1.5454400520387146 0 0 0
51 3 7.79385277224162 17.0991794670329 1.545440052038486 0 0 0
52 3 10.911394212226492 17.099179467032783 1.5454400520382334 0 0 0
53 3 14.028935652212208 17.09917946703248 1.5454400520380196 0 0 0
54 3 17.14647709219741 17.09917946703246 1.5454400520379115 0 0 0
55 3 20.26401853218228 17.0991794670324 1.5454400520376004 0 0 0
56 3 23.381559972168404 17.09917946703301 1.5454400520386804 0 0 0
403 3 26.499101412153834 17.099179467032002 1.5454400520374496 0 0 0
404 3 29.616642852137097 17.09917946703251 1.5454400520375358 0 0 0
405 3 32.734184292123686 17.09917946703294 1.545440052039242 0 0 0
57 3 3.117540612262605 19.799049907485507 1.5454400520422025 0 0 0
58 3 6.235082052249169 19.799049907483905 1.5454400520378582 0 0 0
59 3 9.352623492234148 19.799049907484083 1.5454400520387759 0 0 0
60 3 12.47016493221997 19.799049907483745 1.5454400520383347 0 0 0
61 3 15.587706372204956 19.799049907483965 1.545440052038981 0 0 0
62 3 18.705247812190148 19.79904990748395 1.545440052038931 0 0 0
63 3 21.8227892521752 19.799049907484097 1.545440052039397 0 0 0
64 3 24.940330692159826 19.79904990748384 1.5454400520380922 0 0 0
406 3 28.057872132145032 19.79904990748437 1.5454400520384763 0 0 0
407 3 31.175413572129973 19.799049907483234 1.5454400520385223 0 0 0
408 3 34.292955012116366 19.799049907484076 1.545440052040653 0 0 0
65 3 1.5587698922685576 22.498920347931996 1.5454400520390572 0 0 0
66 3 4.676311332254588 22.498920347934213 1.5454400520373495 0 0 0
67 3 7.793852772241402 22.498920347933716 1.5454400520363998 0 0 0
68 3 10.911394212226712 22.498920347933595 1.5454400520370468 0 0 0
69 3 14.028935652212697 22.498920347933485 1.5454400520352698 0 0 0
70 3 17.146477092197436 22.498920347933637 1.5454400520360168 0 0 0
71 3 20.26401853218256 22.498920347933858 1.545440052035712 0 0 0
72 3 23.381559972167747 22.49892034793413 1.5454400520357 0 0 0
409 3 26.499101412152985 22.49892034793332 1.5454400520362634 0 0 0
410 3 29.616642852138014 22.498920347933375 1.5454400520361244 0 0 0
411 3 32.734184292123345 22.498920347934323 1.5454400520365554 0 0 0
73 3 3.117540612263482 25.198790788385946 1.545440052041089 0 0 0
74 3 6.23508205225027 25.19879078838285 1.5454400520375722 0 0 0
75 3 9.352623492233711 25.198790788382897 1.5454400520389828 0 0 0
76 3 12.470164932219724 25.198790788382805 1.545440052038981 0 0 0
77 3 15.587706372204975 25.19879078838294 1.5454400520387188 0 0 0
78 3 18.70524781219027 25.19879078838303 1.545440052039141 0 0 0
79 3 21.82278925217534 25.198790788383022 1.545440052038599 0 0 0
80 3 24.9403306921597 25.198790788382667 1.5454400520384155 0 0 0
412 3 28.05787213214583 25.19879078838351 1.5454400520390486 0 0 0
413 3 31.175413572131436 25.19879078838259 1.5454400520385474 0 0 0
414 3 34.29295501211619 25.19879078838356 1.545440052037827 0 0 0
81 3 1.5587698922677542 27.89866122883463 1.5454400520406626 0 0 0
82 3 4.676311332255957 27.89866122883562 1.5454400520393627 0 0 0
83 3 7.793852772241952 27.898661228835177 1.5454400520390572 0 0 0
84 3 10.911394212226392 27.898661228834918 1.5454400520380291 0 0 0
85 3 14.028935652211969 27.8986612288347 1.545440052038711 0 0 0
86 3 17.14647709219799 27.898661228835234 1.545440052039051 0 0 0
87 3 20.264018532182295 27.89866122883455 1.545440052037665 0 0 0
88 3 23.38155997216775 27.898661228835138 1.5454400520391283 0 0 0
415 3 26.49910141215412 27.898661228834033 1.545440052038345 0 0 0
416 3 29.6166428521386 27.89866122883519 1.5454400520382652 0 0 0
417 3 32.73418429212464 27.898661228835753 1.5454400520404552 0 0 0
257 3 3.117540612260123 30.598531669289642 1.545440052042312 0 0 0
258 3 6.235082052249112 30.598531669286036 1.545440052038209 0 0 0
259 3 9.352623492233711 30.598531669286295 1.545440052038474 0 0 0
260 3 12.470164932219841 30.59853166928576 1.545440052038896 0 0 0
261 3 15.587706372205242 30.598531669286448 1.5454400520395395 0 0 0
262 3 18.705247812190485 30.598531669287063 1.5454400520387708 0 0 0
263 3 21.82278925217536 30.598531669286004 1.5454400520389548 0 0 0
264 3 24.94033069215936 30.598531669285695 1.5454400520394576 0 0 0
481 3 28.05787213214551 30.598531669286544 1.5454400520390006 0 0 0
482 3 31.175413572131077 30.598531669286572 1.5454400520384204 0 0 0
483 3 34.29295501211713 30.598531669286817 1.5454400520380938 0 0 0
265 3 1.558769892271432 33.29840210973248 1.5454400520342493 0 0 0
266 3 4.676311332254424 33.2984021097373 1.5454400520393585 0 0 0
267 3 7.793852772241521 33.29840210973769 1.5454400520374774 0 0 0
268 3 10.911394212226847 33.2984021097372 1.5454400520394387 0 0 0
269 3 14.02893565221272 33.29840210973892 1.5454400520389089 0 0 0
270 3 17.14647709219751 33.2984021097385 1.545440052037812 0 0 0
271 3 20.26401853218194 33.29840210973701 1.5454400520375462 0 0 0
272 3 23.381559972168404 33.29840210973909 1.5454400520383371 0 0 0
484 3 26.4991014121531 33.298402109737275 1.5454400520382596 0 0 0
485 3 29.616642852137005 33.29840210973746 1.5454400520381517 0 0 0
486 3 32.73418429212394 33.29840210973686 1.5454400520386797 0 0 0
273 3 3.1175406122648495 35.99827255018747 1.5454400520379643 0 0 0
274 3 6.235082052249046 35.99827255018679 1.545440052036759 0 0 0
275 3 9.352623492234137 35.99827255018743 1.5454400520378138 0 0 0
276 3 12.47016493222029 35.99827255018842 1.5454400520366347 0 0 0
277 3 15.587706372204655 35.9982725501882 1.5454400520357015 0 0 0
278 3 18.70524781219002 35.99827255018756 1.5454400520375544 0 0 0
279 3 21.822789252175774 35.99827255018694 1.5454400520383833 0 0 0
280 3 24.94033069216039 35.998272550188595 1.5454400520374387 0 0 0
487 3 28.057872132146127 35.99827255018856 1.5454400520367635 0 0 0
488 3 31.17541357213076 35.998272550187764 1.5454400520396259 0 0 0
489 3 34.29295501211577 35.99827255018791 1.5454400520378202 0 0 0
281 3 1.5587698922687587 38.69814299063742 1.5454400520417106 0 0 0
282 3 4.676311332255954 38.698142990638736 1.5454400520400724 0 0 0
283 3 7.793852772242137 38.69814299063816 1.5454400520393865 0 0 0
284 3 10.911394212227073 38.69814299063863 1.5454400520386862 0 0 0
285 3 14.028935652211995 38.69814299063819 1.5454400520382352 0 0 0
286 3 17.14647709219703 38.698142990637905 1.545440052039579 0 0 0
287 3 20.264018532182522 38.69814299063879 1.5454400520402876 0 0 0
288 3 23.38155997216908 38.698142990640356 1.545440052039625 0 0 0
490 3 26.49910141215438 38.69814299063853 1.5454400520394178 0 0 0
491 3 29.616642852137723 38.69814299063948 1.5454400520371279 0 0 0
492 3 32.734184292123565 38.698142990639845 1.545440052038511 0 0 0
289 3 3.1175406122609464 41.3980134310911 1.545440052041204 0 0 0
290 3 6.235082052248771 41.39801343109007 1.5454400520381872 0 0 0
291 3 9.352623492234029 41.39801343108926 1.5454400520376619 0 0 0
292 3 12.470164932219799 41.39801343108936 1.54544005203743 0 0 0
293 3 15.587706372205464 41.398013431090206 1.5454400520386056 0 0 0
294 3 18.70524781218987 41.39801343109128 1.5454400520385176 0 0 0
295 3 21.822789252174726 41.39801343109162 1.5454400520391938 0 0 0
296 3 24.940330692160423 41.398013431092345 1.5454400520394107 0 0 0
493 3 28.05787213214609 41.398013431090796 1.5454400520368732 0 0 0
494 3 31.175413572130765 41.3980134310891 1.545440052037328 0 0 0
495 3 34.29295501211629 41.39801343108954 1.5454400520386926 0 0 0
89 2 1.5587698922674476 0.8999568243221983 4.663253281289782 0 0 0
90 2 4.676311332255688 0.8999568243270568 4.663253281293475 0 0 0
91 1 3.117540612264482 1.7999136880483402 3.104346666666037 0 0 0
92 1 6.235082052249695 1.7999136880514448 3.104346666666736 0 0 0
93 2 7.793852772241675 0.8999568243277442 4.663253281294856 0 0 0
94 1 9.35262349223556 1.7999136880509161 3.1043466666665265 0 0 0
95 2 10.911394212227242 0.8999568243251489 4.663253281291731 0 0 0
96 1 12.470164932218637 1.7999136880505555 3.104346666666701 0 0 0
97 2 14.028935652211942 0.8999568243271489 4.663253281294652 0 0 0
98 1 15.58770637220603 1.799913688050552 3.1043466666666553 0 0 0
99 2 17.14647709219767 0.8999568243256083 4.663253281291825 0 0 0
100 2 20.264018532183332 0.899956824327036 4.663253281294529 0 0 0
101 1 18.705247812187864 1.7999136880507407 3.1043466666667188 0 0 0
102 1 21.822789252173614 1.799913688051325 3.104346666666722 0 0 0
103 2 23.38155997216857 0.899956824327356 4.66325328129468 0 0 0
104 1 24.94033069215889 1.7999136880507258 3.1043466666667765 0 0 0
418 2 26.499101412153106 0.8999568243267686 4.663253281295081 0 0 0
419 1 28.05787213214773 1.7999136880500113 3.1043466666666766 0 0 0
420 2 29.616642852137417 0.8999568243272119 4.663253281293749 0 0 0
421 1 31.17541357213226 1.7999136880512707 3.10434666666677 0 0 0
422 2 32.73418429212409 0.8999568243255616 4.663253281291423 0 0 0
423 1 34.29295501211302 1.7999136880514661 3.104346666666744 0 0 0
105 1 1.5587698922704147 4.499784128505636 3.1043466666664346 0 0 0
106 1 4.6763113322526975 4.499784128503201 3.1043466666666357 0 0 0
107 2 3.1175406122651936 3.599827264779445 4.663253281294327 0 0 0
108 1 7.793852772241625 4.499784128501645 3.104346666666817 0 0 0
109 2 6.2350820522499655 3.599827264777966 4.663253281296208 0 0 0
110 2 9.352623492233732 3.5998272647787055 4.663253281294936 0 0 0
111 1 10.911394212226497 4.499784128502128 3.1043466666666966 0 0 0
112 2 12.47016493221991 3.599827264778507 4.66325328129507 0 0 0
113 1 14.028935652212445 4.4997841285017355 3.1043466666666184 0 0 0
114 2 15.587706372204767 3.5998272647786664 4.6632532812949945 0 0 0
115 1 17.146477092197276 4.499784128501846 3.1043466666666912 0 0 0
116 1 20.264018532181755 4.499784128501949 3.1043466666666224 0 0 0
117 2 18.705247812190493 3.5998272647787197 4.663253281294963 0 0 0
118 1 23.381559972168603 4.499784128502593 3.104346666666645 0 0 0
119 2 21.822789252175216 3.599827264778302 4.6632532812953915 0 0 0
120 2 24.940330692160472 3.5998272647784315 4.663253281294854 0 0 0
424 1 26.49910141215165 4.499784128503255 3.1043466666666775 0 0 0
425 2 28.057872132146283 3.5998272647788196 4.663253281295816 0 0 0
426 1 29.616642852138554 4.499784128501205 3.104346666666673 0 0 0
427 2 31.17541357213031 3.5998272647785265 4.663253281295217 0 0 0
428 1 32.734184292124766 4.499784128501909 3.1043466666666837 0 0 0
429 2 34.292955012116636 3.5998272647785576 4.663253281294103 0 0 0
121 2 1.558769892275981 6.299697705225048 4.663253281300345 0 0 0
122 2 4.676311332254045 6.299697705229692 4.6632532812928345 0 0 0
123 1 3.1175406122718594 7.199654568948643 3.104346666666827 0 0 0
124 1 6.235082052250657 7.199654568953841 3.1043466666669253 0 0 0
125 2 7.793852772242118 6.299697705229692 4.663253281294625 0 0 0
126 1 9.352623492233864 7.199654568951978 3.104346666666468 0 0 0
127 2 10.911394212226906 6.299697705229366 4.663253281295008 0 0 0
128 1 12.470164932219488 7.1996545689527105 3.104346666666599 0 0 0
129 2 14.028935652212128 6.299697705229368 4.663253281295129 0 0 0
130 1 15.587706372205282 7.199654568952549 3.1043466666667725 0 0 0
131 2 17.14647709219719 6.299697705229181 4.663253281295205 0 0 0
132 2 20.264018532182284 6.29969770522928 4.66325328129491 0 0 0
133 1 18.705247812190922 7.199654568952875 3.104346666666752 0 0 0
134 1 21.82278925217538 7.1996545689531155 3.104346666666725 0 0 0
135 2 23.381559972168446 6.299697705229503 4.66325328129427 0 0 0
136 1 24.94033069215731 7.199654568952847 3.1043466666666983 0 0 0
430 2 26.499101412154513 6.29969770522889 4.66325328129507 0 0 0
431 1 28.057872132143668 7.199654568952539 3.104346666666746 0 0 0
432 2 29.61664285213835 6.299697705228944 4.663253281296327 0 0 0
433 1 31.17541357213305 7.199654568953941 3.104346666666691 0 0 0
434 2 32.73418429212358 6.299697705229458 4.663253281294257 0 0 0
435 1 34.292955012113396 7.199654568953757 3.1043466666666535 0 0 0
137 1 1.5587698922743964 9.899525009420389 3.104346666667213 0 0 0
138 1 4.676311332250871 9.899525009403412 3.1043466666664763 0 0 0
139 2 3.117540612264041 8.999568145681259 4.663253281292302 0 0 0
140 1 7.793852772241484 9.899525009402254 3.1043466666667396 0 0 0
141 2 6.235082052250693 8.999568145679673 4.663253281295988 0 0 0
142 2 9.352623492234116 8.999568145680643 4.663253281295304 0 0 0
143 1 10.911394212226256 9.899525009402709 3.1043466666667427 0 0 0
144 2 12.470164932219621 8.999568145680318 4.6632532812950505 0 0 0
145 1 14.02893565221269 9.89952500940283 3.1043466666665918 0 0 0
146 2 15.587706372204757 8.999568145680536 4.663253281295064 0 0 0
147 1 17.1464770921977 9.899525009402623 3.104346666666701 0 0 0
148 1 20.26401853218333 9.899525009402675 3.104346666666573 0 0 0
149 2 18.705247812189672 8.999568145680184 4.66325328129495 0 0 0
150 1 23.381559972166418 9.899525009401188 3.1043466666667263 0 0 0
151 2 21.82278925217539 8.999568145680536 4.663253281294202 0 0 0
152 2 24.940330692160373 8.999568145680282 4.663253281295232 0 0 0
436 1 26.499101412154655 9.89952500940241 3.104346666666653 0 0 0
437 2 28.05787213214531 8.999568145680612 4.66325328129466 0 0 0
438 1 29.616642852139172 9.899525009402545 3.1043466666666277 0 0 0
439 2 31.17541357213037 8.999568145680067 4.663253281294761 0 0 0
440 1 32.73418429212549 9.899525009401506 3.1043466666667583 0 0 0
441 2 34.292955012116366 8.999568145680488 4.6632532812936 0 0 0
153 2 1.5587698922662416 11.69943858612686 4.663253281287938 0 0 0
154 2 4.67631133225512 11.69943858613215 4.663253281293727 0 0 0
155 1 3.117540612267979 12.599395449850658 3.1043466666663133 0 0 0
156 1 6.235082052249459 12.599395449855539 3.1043466666670616 0 0 0
157 2 7.793852772241301 11.699438586131258 4.663253281295256 0 0 0
158 1 9.352623492234306 12.599395449855074 3.1043466666665456 0 0 0
159 2 10.911394212227027 11.699438586131178 4.663253281295481 0 0 0
160 1 12.470164932219346 12.59939544985547 3.1043466666667427 0 0 0
161 2 14.028935652212178 11.699438586131258 4.663253281295645 0 0 0
162 1 15.587706372205405 12.599395449854065 3.104346666666702 0 0 0
163 2 17.146477092197035 11.699438586131336 4.663253281295329 0 0 0
164 2 20.264018532182696 11.699438586131294 4.663253281295255 0 0 0
165 1 18.70524781219034 12.599395449855237 3.104346666666737 0 0 0
166 1 21.822789252175124 12.599395449853995 3.1043466666666784 0 0 0
167 2 23.381559972168084 11.699438586131736 4.663253281295649 0 0 0
168 1 24.94033069215887 12.599395449855324 3.104346666666625 0 0 0
442 2 26.499101412153067 11.699438586131045 4.663253281296125 0 0 0
443 1 28.057872132146855 12.599395449854297 3.1043466666667014 0 0 0
444 2 29.616642852137446 11.699438586131018 4.66325328129584 0 0 0
445 1 31.17541357213317 12.599395449856155 3.1043466666666917 0 0 0
446 2 32.73418429212364 11.699438586131901 4.6632532812947876 0 0 0
447 1 34.292955012113765 12.599395449854969 3.104346666666647 0 0 0
169 1 1.558769892276972 15.299265890316965 3.104346666667037 0 0 0
170 1 4.676311332252097 15.299265890305488 3.104346666666614 0 0 0
171 2 3.117540612265307 14.39930902658295 4.6632532812941365 0 0 0
172 1 7.7938527722416335 15.299265890305 3.104346666666665 0 0 0
173 2 6.235082052249317 14.399309026580996 4.663253281295032 0 0 0
174 2 9.352623492234557 14.399309026581864 4.663253281294977 0 0 0
175 1 10.911394212225865 15.299265890305012 3.1043466666666197 0 0 0
176 2 12.470164932219836 14.39930902658153 4.663253281295146 0 0 0
177 1 14.028935652212388 15.2992658903053 3.1043466666667263 0 0 0
178 2 15.587706372204856 14.399309026582065 4.663253281295421 0 0 0
179 1 17.146477092197596 15.29926589030509 3.104346666666613 0 0 0
180 1 20.264018532181947 15.299265890304673 3.104346666666683 0 0 0
181 2 18.705247812190052 14.399309026581872 4.663253281294777 0 0 0
182 1 23.38155997216888 15.29926589030462 3.104346666666665 0 0 0
183 2 21.822789252175102 14.399309026582035 4.663253281295527 0 0 0
184 2 24.940330692160043 14.399309026581811 4.663253281294739 0 0 0
448 1 26.499101412152832 15.299265890306536 3.1043466666667485 0 0 0
449 2 28.05787213214626 14.399309026582104 4.6632532812950425 0 0 0
450 1 29.616642852136074 15.299265890305074 3.1043466666666486 0 0 0
451 2 31.175413572131102 14.399309026580996 4.663253281295589 0 0 0
452 1 32.73418429212517 15.299265890304484 3.1043466666666446 0 0 0
453 2 34.292955012115215 14.399309026581516 4.663253281295361 0 0 0
185 2 1.5587698922669233 17.099179467031544 4.663253281291433 0 0 0
186 2 4.6763113322561525 17.099179467032776 4.663253281294369 0 0 0
187 1 3.117540612266452 17.999136330753515 3.1043466666665958 0 0 0
188 1 6.235082052249462 17.99913633075694 3.104346666666926 0 0 0
189 2 7.793852772241402 17.0991794670331 4.6632532812948835 0 0 0
190 1 9.352623492234107 17.99913633075587 3.1043466666664625 0 0 0
191 2 10.911394212226867 17.099179467032688 4.663253281295306 0 0 0
192 1 12.47016493221969 17.99913633075691 3.10434666666682 0 0 0
193 2 14.028935652212109 17.09917946703246 4.663253281295202 0 0 0
194 1 15.587706372204925 17.999136330757146 3.104346666666642 0 0 0
195 2 17.146477092197433 17.099179467032364 4.663253281295487 0 0 0
196 2 20.264018532182345 17.09917946703235 4.663253281295819 0 0 0
197 1 18.705247812189892 17.99913633075748 3.104346666666665 0 0 0
198 1 21.822789252176033 17.999136330758045 3.104346666666685 0 0 0
199 2 23.381559972168482 17.09917946703312 4.663253281294629 0 0 0
200 1 24.94033069215675 17.999136330756645 3.1043466666666903 0 0 0
454 2 26.499101412153895 17.099179467031988 4.663253281295987 0 0 0
455 1 28.05787213214684 17.99913633075484 3.104346666666642 0 0 0
456 2 29.616642852137105 17.099179467032503 4.6632532812958765 0 0 0
457 1 31.175413572134435 17.999136330758507 3.1043466666667188 0 0 0
458 2 32.734184292123665 17.09917946703283 4.663253281294073 0 0 0
459 1 34.292955012112394 17.999136330758933 3.1043466666666015 0 0 0
201 1 1.5587698922809288 20.69900677121207 3.1043466666685733 0 0 0
202 1 4.676311332253708 20.69900677120565 3.1043466666657125 0 0 0
203 2 3.117540612263146 19.799049907485397 4.663253281292867 0 0 0
204 1 7.793852772241709 20.699006771206165 3.104346666666803 0 0 0
205 2 6.23508205224879 19.799049907483802 4.663253281294763 0 0 0
206 2 9.352623492234027 19.79904990748437 4.663253281294743 0 0 0
207 1 10.911394212225108 20.6990067712058 3.1043466666668826 0 0 0
208 2 12.470164932219914 19.799049907483663 4.663253281294962 0 0 0
209 1 14.028935652212548 20.699006771204154 3.1043466666665585 0 0 0
210 2 15.587706372204869 19.799049907483994 4.66325328129437 0 0 0
211 1 17.14647709219746 20.699006771204484 3.1043466666666544 0 0 0
212 1 20.26401853218258 20.6990067712043 3.10434666666672 0 0 0
213 2 18.705247812189914 19.799049907483877 4.6632532812944465 0 0 0
214 1 23.38155997216732 20.699006771203216 3.10434666666663 0 0 0
215 2 21.82278925217538 19.79904990748407 4.663253281293974 0 0 0
216 2 24.940330692159844 19.799049907483898 4.663253281295288 0 0 0
460 1 26.499101412155344 20.699006771206417 3.1043466666667427 0 0 0
461 2 28.057872132144993 19.79904990748443 4.6632532812949234 0 0 0
462 1 29.61664285213886 20.69900677120598 3.10434666666665 0 0 0
463 2 31.175413572129838 19.799049907483248 4.663253281294759 0 0 0
464 1 32.73418429212677 20.699006771203923 3.10434666666689 0 0 0
465 2 34.29295501211621 19.799049907484136 4.6632532812926435 0 0 0
217 2 1.558769892269147 22.49892034793195 4.663253281296057 0 0 0
218 2 4.676311332255146 22.49892034793417 4.663253281295545 0 0 0
219 1 3.1175406122661773 23.398877211657368 3.104346666666729 0 0 0
220 1 6.235082052249669 23.398877211662537 3.1043466666669057 0 0 0
221 2 7.793852772240909 22.498920347933584 4.6632532812965 0 0 0
222 1 9.352623492234825 23.398877211663194 3.1043466666662876 0 0 0
223 2 10.911394212226973 22.4989203479335 4.66325328129666 0 0 0
224 1 12.470164932217514 23.398877211664374 3.1043466666668915 0 0 0
225 2 14.028935652212667 22.49892034793354 4.663253281298193 0 0 0
226 1 15.587706372205648 23.39887721166351 3.1043466666667117 0 0 0
227 2 17.146477092197387 22.498920347933772 4.663253281297199 0 0 0
228 2 20.264018532182515 22.498920347933844 4.663253281297482 0 0 0
229 1 18.705247812189857 23.39887721166389 3.1043466666667 0 0 0
230 1 21.822789252175486 23.398877211663688 3.1043466666666806 0 0 0
231 2 23.381559972167828 22.49892034793416 4.663253281297689 0 0 0
232 1 24.940330692159943 23.398877211664086 3.1043466666667614 0 0 0
466 2 26.49910141215313 22.498920347933286 4.663253281297182 0 0 0
467 1 28.05787213214606 23.398877211662732 3.1043466666667543 0 0 0
468 2 29.616642852137787 22.49892034793328 4.663253281297303 0 0 0
469 1 31.17541357213221 23.39887721166372 3.104346666666545 0 0 0
470 2 32.73418429212338 22.498920347934487 4.663253281296774 0 0 0
471 1 34.29295501211648 23.398877211660977 3.1043466666667574 0 0 0
233 1 1.5587698922798845 26.098747652119105 3.1043466666668644 0 0 0
234 1 4.676311332251796 26.09874765211173 3.1043466666662134 0 0 0
235 2 3.117540612263877 25.19879078838582 4.66325328129287 0 0 0
236 1 7.793852772241694 26.09874765211103 3.1043466666668844 0 0 0
237 2 6.235082052250056 25.198790788382627 4.663253281295305 0 0 0
238 2 9.352623492233803 25.19879078838315 4.663253281294626 0 0 0
239 1 10.911394212225984 26.09874765211063 3.104346666666821 0 0 0
240 2 12.470164932219705 25.198790788382862 4.663253281294233 0 0 0
241 1 14.028935652212287 26.098747652111594 3.1043466666665944 0 0 0
242 2 15.587706372204877 25.19879078838293 4.663253281294765 0 0 0
243 1 17.146477092197934 26.098747652111378 3.1043466666665838 0 0 0
244 1 20.26401853218147 26.09874765211144 3.1043466666666957 0 0 0
245 2 18.705247812190237 25.198790788383178 4.66325328129427 0 0 0
246 1 23.381559972168027 26.09874765211083 3.104346666666581 0 0 0
247 2 21.82278925217534 25.1987907883829 4.66325328129488 0 0 0
248 2 24.94033069215963 25.19879078838245 4.663253281294961 0 0 0
472 1 26.499101412154612 26.098747652113477 3.104346666666633 0 0 0
473 2 28.05787213214581 25.19879078838357 4.663253281294145 0 0 0
474 1 29.616642852136764 26.098747652111403 3.1043466666667934 0 0 0
475 2 31.175413572131433 25.198790788382766 4.663253281294668 0 0 0
476 1 32.73418429212337 26.09874765211213 3.1043466666667014 0 0 0
477 2 34.292955012116266 25.198790788383548 4.663253281295573 0 0 0
249 2 1.5587698922680437 27.898661228835 4.663253281292027 0 0 0
250 2 4.676311332255831 27.8986612288357 4.663253281293794 0 0 0
377 1 3.1175406122663407 28.798618092557856 3.1043466666659207 0 0 0
253 2 7.793852772241676 27.898661228835 4.663253281294261 0 0 0
379 1 6.235082052249118 28.798618092561213 3.1043466666674178 0 0 0
382 1 9.35262349223323 28.798618092560268 3.1043466666659976 0 0 0
255 2 10.911394212226643 27.898661228834822 4.663253281295419 0 0 0
383 1 12.470164932221154 28.798618092562805 3.104346666666827 0 0 0
256 2 14.028935652211889 27.898661228834897 4.663253281294564 0 0 0
384 1 15.587706372205034 28.79861809256245 3.104346666666698 0 0 0
254 2 17.146477092198133 27.898661228835262 4.663253281294395 0 0 0
252 2 20.264018532182245 27.898661228834634 4.663253281295743 0 0 0
381 1 18.705247812188162 28.798618092560115 3.1043466666667285 0 0 0
251 2 23.381559972167814 27.898661228835252 4.663253281294084 0 0 0
380 1 21.822789252177724 28.798618092562997 3.1043466666668724 0 0 0
378 1 24.94033069215738 28.79861809256389 3.1043466666666726 0 0 0
478 2 26.4991014121542 27.898661228833976 4.663253281294917 0 0 0
526 1 28.057872132144457 28.798618092560776 3.10434666666663 0 0 0
479 2 29.61664285213858 27.898661228835238 4.663253281295061 0 0 0
527 1 31.175413572131742 28.798618092560545 3.1043466666666975 0 0 0
480 2 32.734184292124596 27.898661228835604 4.663253281292945 0 0 0
528 1 34.292955012112394 28.798618092559586 3.104346666666671 0 0 0
305 1 1.5587698922867865 31.498488533014786 3.104346666666657 0 0 0
297 2 3.117540612260618 30.5985316692892 4.66325328129226 0 0 0
307 1 4.676311332253719 31.498488533012285 3.1043466666664523 0 0 0
298 2 6.235082052249436 30.598531669285595 4.663253281295166 0 0 0
309 1 7.793852772241189 31.49848853300934 3.104346666666912 0 0 0
299 2 9.352623492233759 30.5985316692866 4.6632532812951615 0 0 0
300 2 12.470164932219772 30.598531669285737 4.6632532812942475 0 0 0
311 1 10.911394212227169 31.49848853301322 3.104346666666851 0 0 0
301 2 15.58770637220522 30.598531669286334 4.663253281293772 0 0 0
313 1 14.02893565221244 31.49848853300956 3.104346666666571 0 0 0
315 1 17.14647709219693 31.498488533008917 3.1043466666666966 0 0 0
302 2 18.70524781219037 30.59853166928694 4.6632532812945415 0 0 0
317 1 20.26401853218099 31.498488533011038 3.1043466666665274 0 0 0
303 2 21.82278925217536 30.59853166928591 4.66325328129454 0 0 0
319 1 23.381559972169267 31.498488533007496 3.1043466666666446 0 0 0
304 2 24.9403306921592 30.5985316692858 4.663253281293802 0 0 0
499 1 26.499101412154978 31.498488533012303 3.1043466666666713 0 0 0
496 2 28.057872132145576 30.59853166928667 4.663253281294382 0 0 0
497 2 31.17541357213093 30.598531669286444 4.663253281295014 0 0 0
501 1 29.61664285213801 31.498488533010754 3.1043466666666983 0 0 0
498 2 34.292955012117154 30.598531669286913 4.663253281295143 0 0 0
503 1 32.734184292123075 31.49848853301203 3.104346666666571 0 0 0
306 2 1.5587698922719841 33.29840210973251 4.663253281299252 0 0 0
308 2 4.6763113322544 33.29840210973761 4.6632532812942795 0 0 0
321 1 3.1175406122695386 34.19835897345998 3.104346666666755 0 0 0