LAMMPS data file via write_data, version 21 Nov 2023, timestep = 207, units = metal

18887 atoms
3 atom types

0 623.5074471657659 xlo xhi
0 86.39572728885095 ylo yhi
0 50 zlo zhi
0 0 0 xy xz yz

Masses

1 95.94
2 32.065
3 32.065

Atoms # atomic

18887 3 1.558807939845198 0.8999670990898464 1.545560803133293 0 0 0
13861 3 4.6763033863036245 0.8999517966279605 1.5454416893603211 0 0 0
13862 3 7.79380428334934 0.8999175579304317 1.5455840495838462 0 0 0
13863 3 10.911332078123833 0.899914735159652 1.5455340497521637 0 0 0
13864 3 14.028885054426716 0.8999470583038645 1.5454734617306298 0 0 0
13865 3 17.146439438325814 0.899953666889292 1.5454441823349478 0 0 0
13866 3 20.263999300198424 0.8999581754082348 1.5454419797858803 0 0 0
13867 3 23.38155198569818 0.8999620728163337 1.5454668512741667 0 0 0
13428 3 26.49909299059679 0.8999667149076362 1.5454964321890319 0 0 0
13429 3 29.61662108231388 0.8999298813609985 1.545532513394829 0 0 0
13430 3 32.734116934360806 0.8999351393700735 1.5455262573555963 0 0 0
13431 3 35.851664752308885 0.8999626863588025 1.5454870563478624 0 0 0
12298 2 32.73413070343514 27.89861963454619 4.663290588048171 0 0 0
13868 3 3.1175400629819308 3.5997712662231476 1.5455500700699905 0 0 0
13869 3 6.23505128527311 3.599756447286757 1.5455470456329052 0 0 0
13870 3 9.352585647191344 3.599790092383607 1.5455052050809694 0 0 0
13871 3 12.470119037922354 3.599795894208012 1.545474220135891 0 0 0
13873 3 15.587668586612804 3.599810925716066 1.5454436726223066 0 0 0
13885 3 18.705225155945065 3.5998184279596543 1.5454336119636802 0 0 0
13874 3 21.822780576818083 3.5998214549389562 1.5454534946984948 0 0 0
13875 3 24.940326087147987 3.599822277897472 1.5454888443567263 0 0 0
13437 3 28.057872290554048 3.599835641369134 1.545533640940809 0 0 0
13438 3 31.175347361783857 3.599837069409221 1.54553532489297 0 0 0
13414 3 34.292894056273724 3.599816442913751 1.5455009695406543 0 0 0
13413 3 37.41044683689636 3.599829491332689 1.5454912687229383 0 0 0
13876 3 1.5587718682302414 6.299653746793903 1.5454930719007915 0 0 0
13877 3 4.6762989912276645 6.299651814857116 1.545498837050892 0 0 0
13878 3 7.793822829591871 6.299650653565261 1.5454860872906702 0 0 0
13879 3 10.911359817415843 6.299663459891915 1.5454629697225308 0 0 0
13880 3 14.028900602184343 6.29967213148714 1.5454386643784241 0 0 0
13881 3 17.14645190478975 6.2996811675099575 1.545425428098531 0 0 0
13882 3 20.26400694948854 6.2996842401961075 1.5454363524326293 0 0 0
13883 3 23.381559054891746 6.299681725067033 1.545467292457008 0 0 0
13390 3 26.49911634840336 6.29967972915148 1.5455174168676244 0 0 0
13391 3 29.61660597352797 6.299671138026347 1.5454031851168906 0 0 0
13392 3 32.73410411842548 6.299679058391837 1.5455166859962628 0 0 0
13393 3 35.851672285109466 6.299680015526642 1.5454890897239557 0 0 0
11848 2 7.793837303556828 27.89862503634122 4.663320602075533 0 0 0
13884 3 3.1175362149726973 8.999529532579032 1.5454689190044206 0 0 0
13860 3 6.2350649974033665 8.999531767466358 1.5454667085533362 0 0 0
13872 3 9.352596019656355 8.999535855349917 1.5454520758722174 0 0 0
13859 3 12.470134316789752 8.999543351857259 1.5454344227278547 0 0 0
13844 3 15.587679313233279 8.999548573556558 1.5454218997909763 0 0 0
13833 3 18.705229652307494 8.999551132726332 1.5454252324440654 0 0 0
13834 3 21.82277726838965 8.999548222367386 1.5454469140639087 0 0 0
13835 3 24.940315700283104 8.999539227436117 1.5454726934165472 0 0 0
13399 3 28.057851662050314 8.999502428883675 1.5455084773174006 0 0 0
13400 3 31.17535678307675 8.999502668108162 1.545501903234283 0 0 0
13401 3 34.292906082575314 8.99953477550209 1.545470759413566 0 0 0
13402 3 37.41045802933626 8.999539809078044 1.5454755748716826 0 0 0
13836 3 1.558771473438744 11.699409829892836 1.5454481098871073 0 0 0
13837 3 4.676303450340496 11.699411930737973 1.5454549764262284 0 0 0
13838 3 7.793832795290084 11.699415733108857 1.545449939949018 0 0 0
13839 3 10.911366296413584 11.69941959868645 1.545438141687006 0 0 0
13840 3 14.028906925379307 11.699420430396565 1.5454260397966777 0 0 0
13841 3 17.146452864495 11.699419806897648 1.5454215673884582 0 0 0
13842 3 20.26400025477517 11.699416316901216 1.545432336340267 0 0 0
13843 3 23.381541416320022 11.699409065432956 1.5454531620427026 0 0 0
13308 3 26.499076114353933 11.699395780736703 1.5454688594847876 0 0 0
13309 3 29.61659998296955 11.69939460960956 1.5454678918585742 0 0 0
13310 3 32.73413155984973 11.699393831236657 1.5454540430777333 0 0 0
13311 3 35.851680721510945 11.699401001426876 1.545449220405563 0 0 0
12291 2 37.41044637191366 25.19875181988623 4.663273795626904 0 0 0
13845 3 3.117545017855809 14.399295645763775 1.5454531824935818 0 0 0
13857 3 6.235070475794015 14.399294854957322 1.5454559544975992 0 0 0
13846 3 9.352596399845053 14.399300877313053 1.5454515371875792 0 0 0
13847 3 12.470133996982346 14.399294093235174 1.5454394085642575 0 0 0
13848 3 15.587675026233727 14.399290654114822 1.5454259501592087 0 0 0
13849 3 18.70522137349874 14.399285509551712 1.5454216122473974 0 0 0
13850 3 21.822766717248147 14.399278666950192 1.5454316852973449 0 0 0
13851 3 24.940305250689622 14.399271433282108 1.5454469735482057 0 0 0
13317 3 28.057834927005352 14.399269608421113 1.5454531366736777 0 0 0
13318 3 31.175365580455885 14.399271036020709 1.545443933698414 0 0 0
13319 3 34.29290471059735 14.399271764183501 1.545431657654218 0 0 0
13320 3 37.41045205098043 14.399270945838525 1.5454335202829783 0 0 0
13852 3 1.5587809465376687 17.099163102910214 1.5454564750471138 0 0 0
13853 3 4.676330565809351 17.099187930311924 1.545488446378866 0 0 0
13854 3 7.793816791907831 17.099191028046064 1.5454903849049548 0 0 0
13855 3 10.91136204570796 17.099168976719316 1.5454613815155913 0 0 0
13856 3 14.028899898684234 17.099164693697514 1.5454422276736461 0 0 0
13858 3 17.146441873222038 17.099160423439578 1.545423668919905 0 0 0
13887 3 20.263987553719584 17.09915400069539 1.5454167622557413 0 0 0
13914 3 23.381531526754816 17.09914662503922 1.5454230411728729 0 0 0
13325 3 26.49906925548846 17.099142899944496 1.5454333500515018 0 0 0
13326 3 29.616601825780744 17.099144503558087 1.5454356700246796 0 0 0
13327 3 32.73413626077989 17.09914822636314 1.5454279449768542 0 0 0
13303 3 35.85167689578899 17.09914880316139 1.545422344164826 0 0 0
11796 2 17.146448275355073 27.89861707648296 4.6633489116012745 0 0 0
13888 3 3.117580501502648 19.799030599451672 1.5454913827539154 0 0 0
13917 3 6.235079869417004 19.799029312930266 1.545382227414596 0 0 0
13918 3 9.3525735365655 19.79904008942283 1.545504683214388 0 0 0
13919 3 12.470126829073696 19.799037935160523 1.545469533679787 0 0 0
13920 3 15.587667691572628 19.79903893643084 1.5454471569797779 0 0 0
13921 3 18.705208848723196 19.799036896726683 1.5454274224120093 0 0 0
13922 3 21.822752341115716 19.799030166661723 1.5454177778249472 0 0 0
13923 3 24.94029590893222 19.79902305790012 1.5454187904929715 0 0 0
13279 3 28.057835586364224 19.799020396997985 1.5454250051940333 0 0 0
13280 3 31.175371978784703 19.79902324474979 1.5454282235953585 0 0 0
13281 3 34.29290837341661 19.799026218462483 1.5454272265580762 0 0 0
13282 3 37.41044645496512 19.799024852602695 1.545427724903906 0 0 0
13924 3 1.5587803852299724 22.498883587547873 1.5454584980209773 0 0 0
13925 3 4.676333064357144 22.498855993597452 1.5455022183542138 0 0 0
13926 3 7.793840847050056 22.498864867156872 1.5455192751156428 0 0 0
13927 3 10.911375942048311 22.498904809643207 1.5454958889566177 0 0 0
13929 3 14.028905356090263 22.49891300163161 1.5454825649366146 0 0 0
13941 3 17.146437844248023 22.49891797682707 1.545463974036097 0 0 0
13930 3 20.26397456989545 22.498915191430534 1.5454453827176766 0 0 0
13746 3 23.381516611346104 22.498906783103486 1.5454304334091495 0 0 0
13287 3 26.499061297328204 22.4989005981886 1.5454248503217907 0 0 0
13288 3 29.61660432894197 22.498899077048954 1.5454290741717025 0 0 0
13289 3 32.7341437157394 22.498901808350077 1.5454359722733517 0 0 0
13290 3 35.8516783558162 22.49890200190797 1.5454398249160362 0 0 0
12296 2 26.499061603792956 27.898627005980124 4.663266364439057 0 0 0
13745 3 3.1175605355557248 25.198740336524803 1.5454600177147069 0 0 0
13722 3 6.235097837636277 25.198747380408026 1.545493066916266 0 0 0
13723 3 9.352626176577393 25.1987631798552 1.545512050311094 0 0 0
13724 3 12.47015458503923 25.19878476564461 1.5455113615938043 0 0 0
13725 3 15.587673307608753 25.198794524577096 1.545504294421026 0 0 0
13726 3 18.705201742870585 25.198795984414687 1.5454919006731687 0 0 0
13727 3 21.822738520716694 25.198784674378604 1.545468225601285 0 0 0
13728 3 24.940281143822055 25.198777881194797 1.5454444600627806 0 0 0
13296 3 28.05783071784138 25.198775143899045 1.545436720956539 0 0 0
13297 3 31.17537761406466 25.19877463539159 1.5454454862830567 0 0 0
13298 3 34.292917302448004 25.198782039572254 1.5454564860038071 0 0 0
13299 3 37.41044282614233 25.19877741840194 1.545457710317447 0 0 0
13729 3 1.5587851852375496 27.898612912067744 1.545430732744004 0 0 0
13730 3 4.6763362025373345 27.89861556145921 1.5454654876336267 0 0 0
13731 3 7.7938745652407215 27.898623163311107 1.5455040121042845 0 0 0
13732 3 10.911421344177992 27.898657572394598 1.5455454835376095 0 0 0
13733 3 14.02892251320762 27.898696219911056 1.5455724134941946 0 0 0
13734 3 17.14642116616257 27.898676848445188 1.5455543720454394 0 0 0
13735 3 20.263969291926315 27.89865925842479 1.5455148930546176 0 0 0
13736 3 23.381502750147806 27.898650115019016 1.5454780968065327 0 0 0
13360 3 26.49904894356784 27.898650815406853 1.5454534507959894 0 0 0
13361 3 29.61660783906403 27.898645267217553 1.5454554073102824 0 0 0
13362 3 32.73415493699549 27.898649668168762 1.5454742984158625 0 0 0
13363 3 35.851699765696836 27.898672871836837 1.5455050117860214 0 0 0
11847 2 14.028915252738065 27.89862118275646 4.663344043922496 0 0 0
11718 2 1.5587668566318416 0.8999652518918064 4.663358091938363 0 0 0
4454 1 3.117618012919045 1.799863254195865 3.1044806976433317 0 0 0
4453 1 6.234986911625635 1.7998450824005354 3.104480264662718 0 0 0
11719 2 7.79383612968408 0.8999619335208671 4.663357000158963 0 0 0
4451 1 9.352590457595607 1.7999086949446117 3.1044405282208896 0 0 0
4449 1 12.470131147301602 1.799895599664671 3.1043963581858627 0 0 0
11720 2 10.911383967612926 0.8999577615152033 4.663327650319717 0 0 0
4448 1 15.587675369061262 1.799907711272361 3.104359528187871 0 0 0
11653 2 14.028922222289886 0.8999611054069317 4.663289749163754 0 0 0
11652 2 17.14645591857383 0.8999585254117728 4.663257970530023 0 0 0
4444 1 18.705220072801854 1.799909468872812 3.1043436532664437 0 0 0
11651 2 20.26398520012515 0.8999554390016998 4.663255591114506 0 0 0
4443 1 21.82276423629622 1.799910195962191 3.1043597510192678 0 0 0
11650 2 23.381520261464075 0.8999525440587318 4.663280626473085 0 0 0
4441 1 24.940307367574935 1.7999111304385673 3.1043934415746777 0 0 0
4827 1 28.05785189776235 1.7999064893744232 3.104419976883624 0 0 0
12338 2 26.49906598444158 0.8999551130169064 4.6633124539459825 0 0 0
4814 1 31.17536546827384 1.799918344057774 3.104430309861198 0 0 0
12142 2 29.616602220702447 0.8999473659245276 4.663329557700975 0 0 0
12071 2 32.73414654034586 0.8999528777736711 4.663320271211386 0 0 0
4811 1 34.29290301320631 1.7999026880243785 3.1044071356942062 0 0 0
12072 2 35.85168219404928 0.8999535628262535 4.663303216336902 0 0 0
4810 1 37.41044371239052 1.7999135455185902 3.104390869313282 0 0 0
11919 2 1.5587639538348848 27.898627133605533 4.66324384378535 0 0 0
4440 1 1.5587592493668287 4.4997642317627395 3.104424128908484 0 0 0
4439 1 4.676299811889904 4.499765535378969 3.1044352084868367 0 0 0
11577 2 3.1175216835613178 3.5998288879965146 4.6633434412898715 0 0 0
4438 1 7.793830753706828 4.499753978368523 3.1044158394642416 0 0 0
11578 2 6.235075855611677 3.599816777253147 4.663339748735005 0 0 0
11579 2 9.352613466413976 3.599831730698931 4.663325043286982 0 0 0
4461 1 10.911367441461223 4.49976663290597 3.1043886816899455 0 0 0
11580 2 12.470152111267202 3.5998233353454534 4.663287378607347 0 0 0
4462 1 14.028906071463934 4.499768910164556 3.1043571959832685 0 0 0
11581 2 15.587688750236723 3.5998260222288256 4.663257380425422 0 0 0
4483 1 17.146450218385187 4.499773408000464 3.1043377553744778 0 0 0
4482 1 20.263993875899203 4.499774422424534 3.104345259178822 0 0 0
11582 2 18.705219020424938 3.5998228789604556 4.663247368895302 0 0 0
4480 1 23.381537584135277 4.499774380981963 3.1043775594197913 0 0 0
11583 2 21.82275027198666 3.5998213023678747 4.6632671974745845 0 0 0
11584 2 24.940287941159887 3.5998187090083853 4.663305734278797 0 0 0
4830 1 26.499075405368536 4.4997703180684985 3.104418048226496 0 0 0
12078 2 28.05784147771026 3.599812091171771 4.663327040801294 0 0 0
4852 1 29.61660728945004 4.499865006530893 3.1044525379682395 0 0 0
12079 2 31.17537139337717 3.599822035432949 4.663332582734241 0 0 0
4850 1 32.73413960861801 4.499772290146398 3.1044214296923864 0 0 0
4849 1 35.85167342501712 4.499774140063002 3.104400740516396 0 0 0
12080 2 34.29291466480358 3.599815345420967 4.6633172268116425 0 0 0
12301 2 34.29290926120671 25.19875652266286 4.663269539755064 0 0 0
12082 2 37.4104470733886 3.599820545326332 4.663304712977889 0 0 0
11585 2 1.5587621670266845 6.2996927153511075 4.663309017051115 0 0 0
4476 1 3.117533860732884 7.199631591642863 3.1043947831207466 0 0 0
11586 2 4.676303487203993 6.299696689709797 4.663315492201796 0 0 0
4475 1 6.235067613858987 7.199631706272536 3.104390811354872 0 0 0
11588 2 7.793842465546534 6.299688600877817 4.663299140155531 0 0 0
4474 1 9.35260092664192 7.199632021149404 3.1043721919110663 0 0 0
4471 1 12.47014017094144 7.1996369212771345 3.1043500221422025 0 0 0
11599 2 10.91138283104441 6.299693667640403 4.6632766559114085 0 0 0
4469 1 15.58768076107106 7.199638111277055 3.104332224027075 0 0 0
11589 2 14.028919051627742 6.299690524050466 4.663251956374705 0 0 0
11590 2 17.14645275928151 6.2996884209033475 4.6632392400764955 0 0 0
4467 1 18.705223991194952 7.199639406976419 3.104332578358206 0 0 0
11591 2 20.26398520532777 6.299686822524459 4.663249929400996 0 0 0
4466 1 21.822768482237965 7.199638532251691 3.1043554718478394 0 0 0
11592 2 23.381525227435205 6.299689117348278 4.663280544307622 0 0 0
4464 1 24.94031563698156 7.199639790814326 3.104388578683806 0 0 0
4837 1 28.05792168628332 7.1995884377581465 3.104436709758226 0 0 0
12102 2 26.499065470758584 6.299693101404733 4.6633113131551625 0 0 0
4836 1 31.175293371280965 7.199590051377965 3.1044315636453246 0 0 0
12103 2 32.73414429665359 6.299697176619069 4.663311276929021 0 0 0
4833 1 34.292899532168015 7.199640748463195 3.104393203340499 0 0 0
12104 2 35.85167482331978 6.299691743015502 4.663301442251009 0 0 0
4832 1 37.410449258735696 7.1996384418356465 3.104392673100843 0 0 0
12297 2 29.61659409721935 27.898623657268487 4.663268895643798 0 0 0
4463 1 1.5587645523963816 9.899501386985435 3.104363346192055 0 0 0
4538 1 4.676301447760745 9.899503687617333 3.10436943812194 0 0 0
11593 2 3.117531072000129 8.999559723707188 4.663282346257706 0 0 0
4540 1 7.793836638198933 9.899504635677252 3.104361259674961 0 0 0
11594 2 6.235073586274958 8.999558245238479 4.663280111657486 0 0 0
11595 2 9.352611539103211 8.999555320472581 4.6632653500211445 0 0 0
4615 1 10.911372109649266 9.89950559981268 3.1043459867770236 0 0 0
11596 2 12.470149165732044 8.999555420661034 4.663248149128474 0 0 0
4613 1 14.028911714900856 9.899506215716032 3.1043317765566685 0 0 0
11597 2 15.587684459147399 8.999552241700815 4.663235752978042 0 0 0
4611 1 17.146452524341754 9.899506238040608 3.104327267284198 0 0 0
4610 1 20.263994091149417 9.899505711079083 3.1043404714570246 0 0 0
11598 2 18.7052172648636 8.999551118602586 4.663239050765941 0 0 0
4609 1 23.38153524833115 9.89950314413661 3.104365729258001 0 0 0
11576 2 21.822752224245843 8.999551779878935 4.663260702940115 0 0 0
11587 2 24.940293361894657 8.999553436443124 4.663289177507381 0 0 0
4770 1 26.499073955474092 9.899490809046894 3.104386656085886 0 0 0
12109 2 28.05783356527193 8.999551289884035 4.66330292092906 0 0 0
4769 1 29.616605807853958 9.899500957271774 3.1043955640987333 0 0 0
12110 2 31.175382873210385 8.999553164804649 4.663296441588717 0 0 0
4767 1 32.73413860405336 9.89949109523548 3.1043757338721725 0 0 0
4766 1 35.85167940539938 9.899501710682447 3.1043705871653122 0 0 0
12111 2 34.29291223863954 8.999558999308105 4.6632870438154645 0 0 0
11896 2 10.9113862586195 27.89862181107639 4.663339904731725 0 0 0
12112 2 37.410445478091 8.999558948799985 4.663288707084004 0 0 0
11575 2 1.5587617952286403 11.699421644069309 4.663261054627499 0 0 0
4604 1 3.1175353281529428 12.59937658460307 3.1043571786990394 0 0 0
11561 2 4.67630163337211 11.699421844823258 4.6632684119456425 0 0 0
4603 1 6.235069917733779 12.5993767097325 3.1043597891415224 0 0 0
11551 2 7.793841663116957 11.699419983710559 4.663263660535462 0 0 0
4601 1 9.352603995731648 12.599378862340828 3.104351514312494 0 0 0
4599 1 12.470142206432879 12.59937555037206 3.1043399122460706 0 0 0
11552 2 10.911378305779728 11.699419056715739 4.663251578388013 0 0 0
4597 1 15.58768196793513 12.599375057546453 3.104329800363625 0 0 0
11553 2 14.0289168095052 11.699417292264393 4.66323985868278 0 0 0
11554 2 17.14645145785372 11.699417588356352 4.663235406307084 0 0 0
4595 1 18.705222304574946 12.599374494129151 3.104330906645369 0 0 0
11555 2 20.263984782594566 11.69941942573616 4.663246023324438 0 0 0
4605 1 21.82276262463371 12.599372816439258 3.1043464920601895 0 0 0
11556 2 23.381522837627283 11.699420814800867 4.663266904159587 0 0 0
4619 1 24.940302782505064 12.599367904872341 3.1043648044107917 0 0 0
4753 1 28.05783740466026 12.599367000413318 3.1043722673501675 0 0 0
12045 2 26.499066569839247 11.699416390748778 4.663282111052459 0 0 0
4777 1 31.175371653859862 12.599366771475145 3.1043618211327595 0 0 0
12044 2 29.616609214178833 11.69942468917574 4.663284797299347 0 0 0
11996 2 32.734145076606744 11.699418191287872 4.663267351908554 0 0 0
4800 1 34.29290730395475 12.599366201404472 3.1043485322194924 0 0 0
11973 2 35.85167696599406 11.699424893814673 4.6632626342515096 0 0 0
4799 1 37.410449218294715 12.599367966051503 3.104352372705428 0 0 0
11775 2 20.2640043540063 27.89862153794145 4.6633309470885616 0 0 0
4620 1 1.5587685951753767 15.299244580006617 3.104356573650001 0 0 0
4643 1 4.676311420736145 15.299252088988535 3.104367324917615 0 0 0
11557 2 3.1175352893729342 14.399287558564772 4.663266253633064 0 0 0
4641 1 7.793830445129062 15.299253203967094 3.1043670595465422 0 0 0
11558 2 6.235071452706262 14.399284051658043 4.66327230026019 0 0 0
11559 2 9.35260598725852 14.399286179122612 4.66326470711878 0 0 0
4638 1 10.911372535589871 15.29924682877534 3.1043576403693423 0 0 0
11560 2 12.470148958909693 14.399282518121364 4.663253119486396 0 0 0
4636 1 14.028911302745774 15.299244865014908 3.1043418188308953 0 0 0
11562 2 15.587686992496737 14.399285004006963 4.663239598880465 0 0 0
4634 1 17.146450879425128 15.299244163450942 3.1043284565819342 0 0 0
4633 1 20.263990627548747 15.299243121617332 3.1043284254776875 0 0 0
11573 2 18.70522030221763 14.399288785795727 4.6632354557783575 0 0 0
4631 1 23.381530085310757 15.299240638420176 3.1043406508333504 0 0 0
11563 2 21.822754042483375 14.39929200652444 4.663245456914878 0 0 0
11564 2 24.94029325412178 14.399291135780691 4.66326046468846 0 0 0
4801 1 26.499067160643587 15.299239259579364 3.1043527417597594 0 0 0
11979 2 28.05783542753333 14.39929090533786 4.66326696291201 0 0 0
4788 1 29.616603353472478 15.299238534415196 3.1043519257671757 0 0 0
11980 2 31.17537769043391 14.399288886987506 4.663257751080317 0 0 0
4787 1 32.73413982601392 15.299238061233417 3.1043393606188867 0 0 0
4786 1 35.851677479862 15.299236771428589 3.1043322136465457 0 0 0
11981 2 34.292911129694076 14.399286800198707 4.663245152929619 0 0 0
12299 2 35.85168147907522 27.898616464192152 4.663299332051092 0 0 0
11982 2 37.4104428244817 14.399288993477203 4.663246940916592 0 0 0
11565 2 1.5587597784695817 17.099149276070488 4.663273156855557 0 0 0
4626 1 3.1175374268626492 17.999111331021233 3.1043817250706462 0 0 0
11566 2 4.676307570532189 17.099148398258237 4.663282840090386 0 0 0
4625 1 6.2350726895927835 17.999205504473636 3.104411556847515 0 0 0
11567 2 7.793835293686574 17.09914742199944 4.663284679152806 0 0 0
4623 1 9.352607315527239 17.999114122961497 3.1043880419754157 0 0 0
4622 1 12.470140819531174 17.99911495842863 3.104364579663964 0 0 0
11568 2 10.911383532835048 17.099147798812446 4.663278138963759 0 0 0
4594 1 15.587679923666528 17.999114545808528 3.104342094144375 0 0 0
11569 2 14.028921122090773 17.09915111269242 4.663255929072783 0 0 0
11570 2 17.146456770528065 17.099153797257404 4.663237436530987 0 0 0
4591 1 18.705218722242748 17.99911395169868 3.104325518756785 0 0 0
11571 2 20.263989301337983 17.099158188112977 4.663230561939458 0 0 0
4563 1 21.822757955260233 17.999112315503552 3.1043224184607974 0 0 0
11572 2 23.381523530674265 17.099161193768516 4.663236834193567 0 0 0
4561 1 24.94029650102938 17.999110924460595 3.1043300379520247 0 0 0
3669 1 28.05783401930617 17.999110333714828 3.1043379872074492 0 0 0
11987 2 26.499061665069725 17.099161888293754 4.663247181360833 0 0 0
3667 1 31.17537120140089 17.999110127685494 3.1043368932128326 0 0 0
11988 2 29.616603450274873 17.09915912369085 4.663249349668881 0 0 0
11989 2 32.73414281254802 17.099154221065707 4.663241754822964 0 0 0
3665 1 34.29290843364434 17.999108869806275 3.1043304256264364 0 0 0
11990 2 35.851677015873996 17.099151175841904 4.663236128468894 0 0 0
3664 1 37.410446510593374 17.999106770163642 3.1043299868208174 0 0 0
14040 3 2.73854670152964e-06 25.198746397504102 1.54544200698616 1 0 0
4560 1 1.558780282012734 20.698979725643845 3.104369926683425 0 0 0
4559 1 4.676388441153578 20.698930928781525 3.1044174003625433 0 0 0
11574 2 3.1175325768159263 19.799025393472572 4.663285538976638 0 0 0
4557 1 7.793762383610929 20.698933821584955 3.1044279282036427 0 0 0
11600 2 9.352611979551527 19.799022490087154 4.663298695254779 0 0 0
4555 1 10.911366768942205 20.69898689903801 3.104392028409635 0 0 0
11601 2 12.47014796704026 19.799018120206124 4.663282340862565 0 0 0
4564 1 14.028908633829493 20.698984771124774 3.1043718970727943 0 0 0
11628 2 15.58768869137507 19.799016500191435 4.663260185977059 0 0 0
4551 1 17.146447356146695 20.698986035586895 3.1043501113615624 0 0 0
4550 1 20.263985766921383 20.698984344984215 3.104333181099418 0 0 0
11629 2 18.705224105497415 19.799017827356653 4.6632410259962045 0 0 0
4548 1 23.381524988568863 20.69898210415873 3.104325454572241 0 0 0
11630 2 21.822758440046407 19.799021198796886 4.663231495828968 0 0 0
11631 2 24.940293271238513 19.79902533131019 4.663232620304289 0 0 0
3655 1 26.49906371572997 20.698981642469036 3.104327329791847 0 0 0
11971 2 28.057830515553285 19.799027045301745 4.66323884434815 0 0 0
3653 1 29.61660186149852 20.698981817147356 3.1043331663732268 0 0 0
11970 2 31.17536997996049 19.79902430215834 4.6632419778326355 0 0 0
3651 1 32.734140091891334 20.69898174078468 3.1043363714144823 0 0 0
3650 1 35.85167725125997 20.698979856095605 3.1043371569839278 0 0 0
11969 2 34.292908193325005 19.7990186309179 4.66324092146067 0 0 0
11920 2 4.67629528844008 27.898627544920274 4.6632788186828344 0 0 0
11948 2 37.4104449354856 19.799016061807965 4.6632411999372545 0 0 0
11903 2 1.5587627500319206 22.49889009084673 4.663274709344988 0 0 0
4289 1 3.1175430057694045 23.39883170466366 3.1043746338816773 0 0 0
11904 2 4.676293618579262 22.498884000654908 4.663296192225454 0 0 0
4302 1 6.235078439759368 23.39884421292108 3.1044087562513636 0 0 0
11905 2 7.793846660596792 22.498882138047993 4.663313002704112 0 0 0
4304 1 9.352612197517093 23.398840950778162 3.104412281647511 0 0 0
4326 1 12.470147223698152 23.398857135590482 3.1044047240774177 0 0 0
11906 2 10.911384750597923 22.498885688135626 4.663311607332513 0 0 0
4324 1 15.587679025658977 23.398859941396804 3.1043901116447126 0 0 0
11907 2 14.028920799206917 22.498882905991906 4.663295952899495 0 0 0
11908 2 17.14645564736077 22.498882200428874 4.663276973810069 0 0 0
4321 1 18.7052150403003 23.398858870639888 3.1043725266813573 0 0 0
11910 2 20.263992407452626 22.49888147045294 4.66325852510594 0 0 0
4320 1 21.82275360365805 23.398853567043602 3.104353142413803 0 0 0
11921 2 23.381529425392994 22.498884044970413 4.66324397295561 0 0 0
4318 1 24.940292519762743 23.398852472753575 3.104337757431124 0 0 0
3635 1 28.05783135800235 23.398852996007527 3.104334977320539 0 0 0
12329 2 26.49906327240683 22.498889597828665 4.66323853877988 0 0 0
3644 1 31.175370892499156 23.398852352068673 3.1043425323838916 0 0 0
12330 2 29.61659812389427 22.498891683328704 4.663242793849311 0 0 0
12331 2 32.73413762778803 22.498889643905574 4.66324935024271 0 0 0
3631 1 34.292909951986566 23.3988544395473 3.1043499245451214 0 0 0
12332 2 35.85167601412931 22.498884976251002 4.663253411276836 0 0 0
3630 1 37.41044546295927 23.398851554402718 3.104352513072929 0 0 0
11776 2 23.38153758068417 27.898621880496023 4.663294150796188 0 0 0
4317 1 1.5587741349184285 26.098706425486135 3.104347628836633 0 0 0
4316 1 4.676313434512741 26.098707963412977 3.1043799437570727 0 0 0
11911 2 3.1175293000550655 25.198754256546707 4.663272795521909 0 0 0
4314 1 7.793851121945369 26.09871220651252 3.104413141706439 0 0 0
11912 2 6.2350676029830305 25.198759022696485 4.6633094492455225 0 0 0
11913 2 9.352616190637917 25.198752998918568 4.6633244399886715 0 0 0
4312 1 10.911391964888494 26.098724432975274 3.1044260966275106 0 0 0
11914 2 12.470156025730677 25.1987574260422 4.663326910246163 0 0 0
4310 1 14.028915949458835 26.098738998996804 3.1044256615299792 0 0 0
11915 2 15.587681103152438 25.1987542975909 4.663319747462804 0 0 0
4308 1 17.146439349982167 26.09873270243602 3.1044199901826945 0 0 0
4307 1 20.263983776214303 26.0987274264968 3.1044001026704913 0 0 0
11916 2 18.705221099647236 25.19875186267786 4.6633045891913785 0 0 0
4305 1 23.38152131449977 26.09872351033153 3.1043702420952703 0 0 0
11917 2 21.822765286906368 25.198748586777064 4.663281506157028 0 0 0
11918 2 24.940300183409573 25.19875370048005 4.663257827626527 0 0 0
3622 1 26.499059361925227 26.09872454267556 3.104348658216828 0 0 0
12325 2 28.057829137070865 25.198758470581446 4.6632498805023666 0 0 0
3699 1 29.616601007791648 26.09872173712151 3.104350793301668 0 0 0
12314 2 31.175365205909994 25.198756144653892 4.663259079097604 0 0 0
3700 1 32.73414169777685 26.09872279086027 3.1043653519383363 0 0 0
3774 1 35.851684881123845 26.098728475779367 3.1043744943113154 0 0 0
13291 3 38.96921099803308 22.498898984570907 1.5454393139795979 0 0 0
11991 2 38.96921165595854 17.099152158022235 4.663241584274884 0 0 0
11974 2 38.9692090645245 11.699424882492886 4.663276204286122 0 0 0
13432 3 38.969211865850404 0.8999722940630898 1.5454739041279875 0 0 0
12300 2 38.969210857823214 27.8986160897378 4.663294339053656 0 0 0
3772 1 38.96920443906159 26.09872765328125 3.1043705149163254 0 0 0
13364 3 38.96918344269565 27.898671915878175 1.5455000857841195 0 0 0
3648 1 38.96921479321633 20.69897795397269 3.1043381046985514 0 0 0
4656 1 1.4655263325536895e-05 1.7999158359565666 3.104443477448389 1 0 0
5019 1 8.691134897823466e-07 17.999110959187774 3.104357984654917 1 0 0
13404 3 1.254011824118874e-05 19.799025786636175 1.5454551160032732 1 0 0
4888 1 3.353360811715074e-07 23.398841528030072 3.1043571899251248 1 0 0
13477 3 4.420855462000398e-06 14.399288384193689 1.5454408760307083 1 0 0
13737 3 3.1175664630481252 30.59848958211829 1.5454368201864388 0 0 0
13738 3 6.235115916932192 30.598489532251694 1.5454804823801411 0 0 0
13739 3 9.352673507703818 30.59849621056966 1.5455356152389794 0 0 0
13740 3 12.470178164966947 30.59849646244213 1.545433337689315 0 0 0
13741 3 15.587678321077856 30.598502261040785 1.5454482511503196 0 0 0
13742 3 18.705179164643372 30.59851351274753 1.545569177643171 0 0 0
13743 3 21.822748350222753 30.5985342836849 1.5455380978142457 0 0 0
13744 3 24.9402539082761 30.598535880232877 1.5455007386682893 0 0 0
13369 3 28.05782906757355 30.598513874543176 1.5454689241244743 0 0 0
13370 3 31.175392073505687 30.598514797493106 1.5454861891743783 0 0 0
13372 3 34.2929530857181 30.59852172833158 1.5455294075397061 0 0 0
13384 3 37.410441879171444 30.598516033417337 1.5454114228393538 0 0 0
13760 3 1.5587892953349036 33.29836953734059 1.5454270818055416 0 0 0
13774 3 4.676337657047794 33.29836642724355 1.5454636235430337 0 0 0
13775 3 7.793872935557388 33.298360439840074 1.545500652980348 0 0 0
13776 3 10.911410641047498 33.2983251647136 1.5455447934540971 0 0 0
13805 3 14.028932186534739 33.29832896864458 1.5455540650319544 0 0 0
13806 3 17.14645464985692 33.29832351325757 1.5455715155962608 0 0 0
13807 3 20.2640096275201 33.298367937474346 1.545562357887243 0 0 0
13808 3 23.381506941267958 33.29837076567637 1.5454089167990066 0 0 0
13611 3 26.49902518098734 33.298379359712285 1.5455083230831925 0 0 0
13612 3 29.616604776022964 33.298376125387115 1.5454966521593265 0 0 0
13613 3 32.73416051705514 33.29837932006898 1.5455201835057615 0 0 0
13614 3 35.85169939556495 33.29835245225238 1.545557742728429 0 0 0
4243 1 15.58768422964335 28.798686151275106 3.1044838602963476 0 0 0
13809 3 3.1175652161459393 35.99825028863023 1.5454658317114274 0 0 0
13810 3 6.2350986121659515 35.998237493450986 1.5454964042008619 0 0 0
13811 3 9.352630258637383 35.998227915841674 1.5455242792394306 0 0 0
13812 3 12.47016235764968 35.99821831813741 1.545542167351164 0 0 0
13813 3 15.587697670968634 35.99822049101837 1.5455523549560568 0 0 0
13814 3 18.705218128968724 35.998215354613414 1.545548591178933 0 0 0
13815 3 21.822753577174343 35.99819949772521 1.5455545695996793 0 0 0
13817 3 24.9402723633161 35.99820291037925 1.5455303632408075 0 0 0
13620 3 28.057832458230596 35.998233425973744 1.5455052480383769 0 0 0