LAMMPS data file via write_data, version 2 Aug 2023, timestep = 408, units = metal

28704 atoms
3 atom types

0 935.2625102658227 xlo xhi
0 86.39585377947668 ylo yhi
0 50 zlo zhi
0 0 0 xy xz yz

Masses

1 95.94
2 32.065
3 32.065

Atoms # atomic

1 3 1.5587700227202037 0.8999568282254209 1.5454399491420834 0 0 0
2 3 4.676311723606001 0.8999568282251463 1.5454399491424549 0 0 0
3 3 7.7938534244925775 0.8999568282251836 1.5454399491423267 0 0 0
4 3 10.911395125378522 0.8999568282251921 1.5454399491423114 0 0 0
5 3 14.028936826264559 0.8999568282251942 1.545439949142296 0 0 0
6 3 17.146478527150766 0.8999568282251933 1.5454399491423267 0 0 0
7 3 20.264020228036888 0.8999568282251896 1.5454399491422781 0 0 0
8 3 23.381561928922928 0.8999568282251789 1.5454399491423196 0 0 0
9 3 26.499103629808975 0.8999568282251775 1.545439949142312 0 0 0
10 3 29.616645330695093 0.8999568282251763 1.5454399491423148 0 0 0
11 3 32.73418703158111 0.8999568282251672 1.5454399491422883 0 0 0
12 3 35.8517287324672 0.8999568282251532 1.545439949142308 0 0 0
13 3 38.969270433353216 0.8999568282252081 1.5454399491422857 0 0 0
14 3 3.117540873162765 3.5998272588336606 1.5454399491424293 0 0 0
15 3 6.235082574049334 3.5998272588339177 1.5454399491423263 0 0 0
16 3 9.35262427493551 3.5998272588338405 1.5454399491423212 0 0 0
17 3 12.470165975821535 3.5998272588338733 1.5454399491422939 0 0 0
18 3 15.587707676707673 3.59982725883388 1.5454399491423105 0 0 0
19 3 18.705249377593844 3.5998272588338778 1.5454399491423028 0 0 0
20 3 21.822791078479927 3.5998272588338645 1.545439949142306 0 0 0
21 3 24.940332779365967 3.599827258833858 1.5454399491423065 0 0 0
22 3 28.05787448025203 3.599827258833868 1.5454399491422806 0 0 0
23 3 31.17541618113812 3.5998272588338494 1.5454399491423016 0 0 0
24 3 34.29295788202411 3.599827258833871 1.5454399491423088 0 0 0
25 3 37.41049958291026 3.5998272588338542 1.5454399491423143 0 0 0
26 3 1.558770022719725 6.299697689442561 1.5454399491423474 0 0 0
27 3 4.676311723606122 6.299697689442622 1.545439949142401 0 0 0
28 3 7.793853424492501 6.299697689442477 1.545439949142305 0 0 0
29 3 10.911395125378512 6.299697689442468 1.5454399491423096 0 0 0
30 3 14.028936826264564 6.2996976894425085 1.5454399491423065 0 0 0
31 3 17.146478527150766 6.29969768944252 1.5454399491423112 0 0 0
32 3 20.264020228036888 6.299697689442481 1.5454399491423019 0 0 0
33 3 23.381561928922928 6.299697689442499 1.5454399491422905 0 0 0
34 3 26.499103629808992 6.299697689442482 1.5454399491423043 0 0 0
35 3 29.616645330695043 6.299697689442499 1.54543994914232 0 0 0
36 3 32.734187031581115 6.299697689442499 1.5454399491423054 0 0 0
37 3 35.8517287324672 6.299697689442475 1.5454399491422905 0 0 0
38 3 38.96927043335328 6.299697689442496 1.5454399491423016 0 0 0
39 3 3.117540873162998 8.999568120051114 1.5454399491421824 0 0 0
40 3 6.235082574049191 8.999568120051215 1.5454399491423065 0 0 0
41 3 9.352624274935522 8.999568120051105 1.5454399491423167 0 0 0
42 3 12.470165975821574 8.99956812005117 1.5454399491422965 0 0 0
43 3 15.587707676707693 8.999568120051185 1.5454399491423036 0 0 0
44 3 18.705249377593844 8.999568120051167 1.5454399491423148 0 0 0
45 3 21.822791078479927 8.999568120051153 1.545439949142299 0 0 0
46 3 24.940332779365963 8.999568120051148 1.545439949142301 0 0 0
47 3 28.057874480252018 8.999568120051153 1.5454399491423 0 0 0
48 3 31.17541618113812 8.999568120051158 1.545439949142304 0 0 0
49 3 34.29295788202411 8.999568120051153 1.545439949142303 0 0 0
50 3 37.41049958291026 8.999568120051153 1.5454399491423163 0 0 0
51 3 1.558770022719868 11.69943855065997 1.5454399491421507 0 0 0
52 3 4.676311723606036 11.699438550659858 1.5454399491424142 0 0 0
53 3 7.793853424492479 11.69943855065984 1.5454399491422997 0 0 0
54 3 10.911395125378549 11.699438550659824 1.5454399491422994 0 0 0
55 3 14.02893682626458 11.699438550659817 1.5454399491423025 0 0 0
56 3 17.146478527150784 11.699438550659817 1.5454399491423083 0 0 0
57 3 20.264020228036888 11.69943855065981 1.5454399491423034 0 0 0
58 3 23.381561928922928 11.69943855065981 1.5454399491422972 0 0 0
59 3 26.499103629808992 11.69943855065981 1.5454399491422974 0 0 0
60 3 29.616645330695043 11.69943855065981 1.5454399491423096 0 0 0
61 3 32.73418703158112 11.69943855065981 1.5454399491422994 0 0 0
62 3 35.85172873246712 11.69943855065981 1.5454399491422948 0 0 0
63 3 38.96927043335328 11.699438550659785 1.5454399491422983 0 0 0
64 3 3.117540873162971 14.3993089812683 1.5454399491423505 0 0 0
65 3 6.235082574049145 14.399308981268552 1.5454399491422892 0 0 0
66 3 9.352624274935465 14.399308981268458 1.54543994914231 0 0 0
67 3 12.470165975821553 14.399308981268451 1.5454399491422983 0 0 0
68 3 15.587707676707693 14.399308981268451 1.5454399491423165 0 0 0
69 3 18.705249377593844 14.399308981268451 1.5454399491422988 0 0 0
70 3 21.82279107847989 14.399308981268439 1.5454399491423019 0 0 0
71 3 24.940332779365963 14.399308981268439 1.5454399491423016 0 0 0
72 3 28.05787448025203 14.399308981268431 1.5454399491422977 0 0 0
73 3 31.175416181138104 14.399308981268431 1.545439949142301 0 0 0
74 3 34.29295788202411 14.399308981268437 1.5454399491423012 0 0 0
75 3 37.41049958291026 14.399308981268451 1.5454399491423052 0 0 0
76 3 1.5587700227200472 17.09917941187725 1.545439949142433 0 0 0
77 3 4.676311723606029 17.099179411877135 1.5454399491424125 0 0 0
78 3 7.793853424492432 17.099179411877152 1.5454399491423232 0 0 0
79 3 10.911395125378515 17.099179411877095 1.5454399491422879 0 0 0
80 3 14.028936826264564 17.099179411877095 1.5454399491423185 0 0 0
81 3 17.146478527150766 17.099179411877095 1.5454399491423019 0 0 0
82 3 20.264020228036888 17.09917941187708 1.5454399491423019 0 0 0
83 3 23.381561928922928 17.099179411877103 1.5454399491422912 0 0 0
84 3 26.499103629808992 17.09917941187708 1.5454399491423005 0 0 0
85 3 29.61664533069506 17.09917941187709 1.545439949142316 0 0 0
86 3 32.73418703158111 17.09917941187708 1.5454399491423019 0 0 0
87 3 35.85172873246712 17.099179411877078 1.545439949142307 0 0 0
88 3 38.969270433353216 17.099179411877095 1.545439949142295 0 0 0
89 3 3.117540873162879 19.799049842485537 1.545439949142381 0 0 0
90 3 6.235082574049178 19.79904984248584 1.5454399491423032 0 0 0
91 3 9.352624274935412 19.79904984248577 1.5454399491423052 0 0 0
92 3 12.470165975821534 19.799049842485754 1.5454399491423032 0 0 0
93 3 15.587707676707701 19.799049842485747 1.5454399491423128 0 0 0
94 3 18.705249377593873 19.79904984248574 1.545439949142293 0 0 0
95 3 21.822791078479895 19.799049842485733 1.5454399491423116 0 0 0
96 3 24.940332779365963 19.799049842485726 1.545439949142299 0 0 0
97 3 28.057874480252018 19.799049842485726 1.5454399491422892 0 0 0
98 3 31.17541618113812 19.799049842485715 1.5454399491423096 0 0 0
99 3 34.29295788202411 19.799049842485715 1.5454399491423016 0 0 0
100 3 37.41049958291019 19.799049842485715 1.5454399491422977 0 0 0
101 3 1.5587700227197678 22.498920273094427 1.545439949142347 0 0 0
102 3 4.676311723606166 22.498920273094356 1.545439949142397 0 0 0
103 3 7.793853424492373 22.4989202730944 1.5454399491422706 0 0 0
104 3 10.911395125378418 22.49892027309441 1.5454399491422932 0 0 0
105 3 14.028936826264585 22.498920273094384 1.5454399491423105 0 0 0
106 3 17.146478527150784 22.4989202730944 1.545439949142306 0 0 0
107 3 20.264020228036888 22.49892027309437 1.5454399491422908 0 0 0
108 3 23.381561928922928 22.4989202730944 1.5454399491422914 0 0 0
109 3 26.499103629808992 22.498920273094384 1.5454399491423105 0 0 0
110 3 29.616645330695093 22.498920273094413 1.5454399491423227 0 0 0
111 3 32.734187031581115 22.498920273094384 1.5454399491423148 0 0 0
112 3 35.851728732467166 22.498920273094384 1.5454399491422826 0 0 0
113 3 38.969270433353216 22.49892027309437 1.5454399491422885 0 0 0
114 3 3.1175408731628793 25.198790703703065 1.545439949142444 0 0 0
115 3 6.2350825740492 25.198790703703033 1.5454399491422866 0 0 0
116 3 9.35262427493543 25.19879070370302 1.5454399491422994 0 0 0
117 3 12.470165975821537 25.19879070370305 1.5454399491422954 0 0 0
118 3 15.587707676707693 25.198790703703036 1.545439949142326 0 0 0
119 3 18.705249377593844 25.198790703703047 1.545439949142307 0 0 0
120 3 21.82279107847989 25.198790703703047 1.5454399491423079 0 0 0
121 3 24.940332779365963 25.198790703703033 1.5454399491423032 0 0 0
122 3 28.05787448025203 25.19879070370305 1.545439949142279 0 0 0
123 3 31.17541618113812 25.19879070370305 1.5454399491423116 0 0 0
124 3 34.29295788202411 25.19879070370305 1.5454399491422988 0 0 0
125 3 37.41049958291019 25.19879070370302 1.5454399491423114 0 0 0
126 3 1.5587700227202361 27.898661134311755 1.545439949142197 0 0 0
127 3 4.676311723605982 27.89866113431165 1.545439949142355 0 0 0
128 3 7.793853424492428 27.89866113431166 1.5454399491423276 0 0 0
129 3 10.911395125378467 27.898661134311677 1.5454399491422894 0 0 0
130 3 14.028936826264545 27.898661134311713 1.5454399491423165 0 0 0
131 3 17.146478527150784 27.89866113431169 1.5454399491423099 0 0 0
132 3 20.264020228036888 27.89866113431173 1.5454399491423054 0 0 0
133 3 23.381561928922928 27.898661134311677 1.545439949142292 0 0 0
134 3 26.49910362980896 27.898661134311702 1.545439949142301 0 0 0
135 3 29.616645330695093 27.89866113431173 1.545439949142311 0 0 0
136 3 32.73418703158112 27.89866113431169 1.5454399491422872 0 0 0
137 3 35.8517287324672 27.898661134311702 1.5454399491422866 0 0 0
138 3 38.96927043335328 27.898661134311702 1.5454399491423025 0 0 0
139 2 1.5587700227203045 0.8999568282252491 4.663253384191061 0 0 0
140 2 4.676311723606131 0.8999568282250927 4.663253384190955 0 0 0
141 1 3.1175408731630787 1.7999136671332365 3.1043466666666353 0 0 0
142 1 6.235082574049371 1.79991366713327 3.1043466666666584 0 0 0
143 2 7.793853424492548 0.8999568282251784 4.663253384191064 0 0 0
144 1 9.352624274935547 1.7999136671333342 3.1043466666666997 0 0 0
145 2 10.911395125378533 0.8999568282251819 4.66325338419107 0 0 0
146 1 12.470165975821521 1.799913667133336 3.1043466666666677 0 0 0
147 2 14.028936826264559 0.8999568282252088 4.663253384191011 0 0 0
148 1 15.587707676707673 1.7999136671333151 3.1043466666666664 0 0 0
149 2 17.146478527150784 0.8999568282252041 4.663253384191017 0 0 0
150 2 20.264020228036888 0.8999568282251788 4.6632533841910595 0 0 0
151 1 18.705249377593873 1.7999136671333231 3.1043466666666744 0 0 0
152 1 21.82279107847989 1.7999136671333138 3.1043466666666775 0 0 0
153 2 23.381561928922928 0.8999568282251673 4.663253384191018 0 0 0
154 1 24.940332779365963 1.7999136671333198 3.1043466666666775 0 0 0
155 2 26.499103629808975 0.8999568282251703 4.6632533841910435 0 0 0
156 1 28.057874480252018 1.7999136671333258 3.1043466666666686 0 0 0
157 2 29.616645330695093 0.8999568282251745 4.663253384191016 0 0 0
158 1 31.17541618113812 1.7999136671333111 3.104346666666667 0 0 0
159 2 32.73418703158111 0.8999568282251711 4.663253384191044 0 0 0
160 2 35.8517287324672 0.8999568282251652 4.663253384191039 0 0 0
161 1 34.29295788202418 1.7999136671333076 3.1043466666666744 0 0 0
162 2 38.969270433353216 0.8999568282252012 4.663253384191041 0 0 0
163 1 37.41049958291027 1.7999136671333051 3.1043466666666704 0 0 0
164 1 1.55877002271976 4.499784097741935 3.1043466666665007 0 0 0
165 1 4.676311723606112 4.499784097741947 3.104346666666615 0 0 0
166 2 3.117540873162928 3.5998272588337925 4.663253384190857 0 0 0
167 1 7.793853424492464 4.49978409774197 3.1043466666666775 0 0 0
168 2 6.235082574049378 3.5998272588339075 4.663253384191045 0 0 0
169 2 9.352624274935543 3.599827258833856 4.6632533841910675 0 0 0
170 1 10.911395125378517 4.499784097741969 3.104346666666692 0 0 0
171 2 12.470165975821555 3.5998272588338662 4.6632533841910435 0 0 0
172 1 14.028936826264585 4.499784097741966 3.104346666666662 0 0 0
173 2 15.587707676707673 3.5998272588338853 4.663253384191019 0 0 0
174 1 17.146478527150766 4.499784097741969 3.104346666666662 0 0 0
175 1 20.264020228036888 4.499784097741976 3.104346666666668 0 0 0
176 2 18.705249377593844 3.59982725883388 4.6632533841910355 0 0 0
177 1 23.381561928922963 4.499784097741974 3.1043466666666704 0 0 0
178 2 21.822791078479927 3.5998272588338733 4.663253384191019 0 0 0
179 2 24.940332779365963 3.5998272588338525 4.663253384191032 0 0 0
180 1 26.499103629808992 4.499784097741968 3.1043466666666704 0 0 0
181 2 28.057874480252057 3.5998272588338662 4.663253384191053 0 0 0
182 1 29.616645330695093 4.49978409774195 3.104346666666665 0 0 0
183 2 31.17541618113812 3.599827258833858 4.663253384191029 0 0 0
184 1 32.73418703158112 4.4997840977419745 3.1043466666666673 0 0 0
185 1 35.8517287324672 4.499784097741969 3.1043466666666704 0 0 0
186 2 34.29295788202411 3.599827258833873 4.663253384191041 0 0 0
187 1 38.969270433353216 4.499784097741973 3.1043466666666713 0 0 0
188 2 37.41049958291026 3.5998272588338422 4.66325338419103 0 0 0
189 2 1.5587700227197803 6.299697689442403 4.663253384190851 0 0 0
190 2 4.676311723606185 6.2996976894426115 4.6632533841910195 0 0 0
191 1 3.117540873162985 7.1996545283506705 3.104346666666621 0 0 0
192 1 6.235082574049397 7.19965452835063 3.1043466666666735 0 0 0
193 2 7.793853424492487 6.299697689442499 4.663253384191056 0 0 0
194 1 9.352624274935538 7.199654528350589 3.104346666666685 0 0 0
195 2 10.911395125378512 6.299697689442489 4.6632533841910515 0 0 0
196 1 12.470165975821537 7.199654528350616 3.1043466666666797 0 0 0
197 2 14.028936826264564 6.299697689442492 4.663253384191017 0 0 0
198 1 15.587707676707673 7.199654528350607 3.1043466666666655 0 0 0
199 2 17.146478527150766 6.299697689442513 4.663253384191024 0 0 0
200 2 20.264020228036888 6.2996976894424845 4.663253384191031 0 0 0
201 1 18.705249377593844 7.199654528350607 3.1043466666666686 0 0 0
202 1 21.822791078479927 7.1996545283506235 3.1043466666666717 0 0 0
203 2 23.381561928922928 6.299697689442502 4.663253384191028 0 0 0
204 1 24.940332779365985 7.199654528350609 3.104346666666665 0 0 0
205 2 26.49910362980896 6.299697689442492 4.663253384191024 0 0 0
206 1 28.057874480252018 7.199654528350627 3.104346666666669 0 0 0
207 2 29.616645330695043 6.299697689442499 4.663253384191024 0 0 0
208 1 31.175416181138065 7.1996545283506155 3.104346666666671 0 0 0
209 2 32.734187031581115 6.299697689442488 4.663253384191035 0 0 0
210 2 35.8517287324672 6.29969768944247 4.66325338419104 0 0 0
211 1 34.29295788202411 7.199654528350607 3.1043466666666704 0 0 0
212 2 38.969270433353216 6.299697689442513 4.663253384191041 0 0 0
213 1 37.41049958291026 7.199654528350602 3.1043466666666695 0 0 0
214 1 1.5587700227197498 9.899524958959214 3.104346666666505 0 0 0
215 1 4.676311723606109 9.899524958959248 3.1043466666666717 0 0 0
216 2 3.1175408731631804 8.999568120051247 4.663253384191002 0 0 0
217 1 7.793853424492385 9.89952495895924 3.1043466666666593 0 0 0
218 2 6.23508257404928 8.999568120051189 4.663253384191033 0 0 0
219 2 9.35262427493551 8.999568120051133 4.663253384191032 0 0 0
220 1 10.911395125378554 9.89952495895928 3.104346666666679 0 0 0
221 2 12.470165975821574 8.999568120051153 4.663253384191042 0 0 0
222 1 14.028936826264616 9.899524958959274 3.1043466666666713 0 0 0
223 2 15.587707676707693 8.999568120051181 4.663253384191022 0 0 0
224 1 17.146478527150766 9.899524958959265 3.1043466666666695 0 0 0
225 1 20.264020228036888 9.899524958959265 3.1043466666666713 0 0 0
226 2 18.705249377593844 8.99956812005116 4.663253384191021 0 0 0
227 1 23.381561928922928 9.899524958959265 3.1043466666666713 0 0 0
228 2 21.82279107847989 8.999568120051167 4.663253384191049 0 0 0
229 2 24.940332779365963 8.999568120051148 4.663253384191038 0 0 0
230 1 26.499103629808975 9.899524958959265 3.1043466666666713 0 0 0
231 2 28.057874480252018 8.999568120051153 4.663253384191048 0 0 0
232 1 29.616645330695093 9.899524958959258 3.1043466666666744 0 0 0
233 2 31.175416181138065 8.999568120051148 4.663253384191042 0 0 0
234 1 32.73418703158112 9.899524958959265 3.104346666666673 0 0 0
235 1 35.8517287324672 9.89952495895927 3.104346666666672 0 0 0
236 2 34.29295788202411 8.999568120051153 4.663253384191036 0 0 0
237 1 38.969270433353216 9.899524958959265 3.104346666666681 0 0 0
238 2 37.41049958291019 8.999568120051148 4.663253384191027 0 0 0
239 2 1.5587700227198933 11.699438550659826 4.663253384190945 0 0 0
240 2 4.676311723606148 11.699438550659874 4.6632533841909956 0 0 0
241 1 3.1175408731629854 12.599395389567869 3.1043466666666744 0 0 0
242 1 6.235082574049321 12.599395389567956 3.10434666666669 0 0 0
243 2 7.793853424492448 11.699438550659831 4.663253384191024 0 0 0
244 1 9.352624274935536 12.599395389567922 3.104346666666673 0 0 0
245 2 10.911395125378517 11.699438550659817 4.6632533841910595 0 0 0
246 1 12.470165975821555 12.599395389567922 3.104346666666673 0 0 0
247 2 14.028936826264585 11.699438550659824 4.663253384191039 0 0 0
248 1 15.587707676707673 12.599395389567901 3.104346666666669 0 0 0
249 2 17.146478527150784 11.699438550659817 4.6632533841910355 0 0 0
250 2 20.264020228036888 11.69943855065981 4.663253384191035 0 0 0
251 1 18.705249377593837 12.599395389567915 3.10434666666667 0 0 0
252 1 21.82279107847989 12.599395389567908 3.1043466666666744 0 0 0
253 2 23.381561928922928 11.699438550659803 4.663253384191045 0 0 0
254 1 24.940332779365985 12.599395389567915 3.10434666666667 0 0 0
255 2 26.499103629808992 11.69943855065981 4.663253384191043 0 0 0
256 1 28.05787448025203 12.599395389567915 3.1043466666666775 0 0 0
257 2 29.616645330695043 11.699438550659798 4.663253384191029 0 0 0
258 1 31.175416181138065 12.599395389567915 3.1043466666666744 0 0 0
259 2 32.73418703158112 11.69943855065981 4.663253384191035 0 0 0
260 2 35.851728732467166 11.69943855065981 4.663253384191045 0 0 0
261 1 34.29295788202411 12.599395389567915 3.1043466666666752 0 0 0
262 2 38.96927043335328 11.699438550659792 4.663253384191057 0 0 0
263 1 37.41049958291026 12.599395389567874 3.104346666666673 0 0 0
264 1 1.558770022719682 15.299265820176403 3.104346666666632 0 0 0
265 1 4.676311723606074 15.299265820176549 3.1043466666666553 0 0 0
266 2 3.117540873163101 14.399308981268431 4.6632533841909485 0 0 0
267 1 7.793853424492328 15.299265820176563 3.1043466666666744 0 0 0
268 2 6.2350825740491915 14.399308981268504 4.663253384191041 0 0 0
269 2 9.352624274935454 14.399308981268458 4.663253384191032 0 0 0
270 1 10.91139512537853 15.299265820176581 3.1043466666666752 0 0 0
271 2 12.470165975821573 14.399308981268451 4.663253384191051 0 0 0
272 1 14.028936826264585 15.299265820176547 3.1043466666666726 0 0 0
273 2 15.587707676707693 14.399308981268451 4.663253384191028 0 0 0
274 1 17.146478527150766 15.29926582017654 3.1043466666666704 0 0 0
275 1 20.264020228036888 15.299265820176547 3.104346666666671 0 0 0
276 2 18.705249377593844 14.399308981268439 4.66325338419104 0 0 0
277 1 23.381561928922928 15.299265820176563 3.1043466666666695 0 0 0
278 2 21.82279107847989 14.399308981268431 4.663253384191034 0 0 0
279 2 24.940332779365963 14.399308981268451 4.663253384191044 0 0 0
280 1 26.499103629808975 15.299265820176563 3.104346666666671 0 0 0
281 2 28.057874480252018 14.399308981268439 4.663253384191048 0 0 0
282 1 29.616645330695043 15.299265820176547 3.1043466666666744 0 0 0
283 2 31.175416181138104 14.399308981268451 4.663253384191045 0 0 0
284 1 32.73418703158112 15.299265820176556 3.1043466666666744 0 0 0
285 1 35.8517287324672 15.299265820176547 3.104346666666673 0 0 0
286 2 34.29295788202418 14.399308981268451 4.663253384191051 0 0 0
287 1 38.969270433353216 15.299265820176547 3.104346666666667 0 0 0
288 2 37.41049958291026 14.399308981268431 4.663253384191041 0 0 0
289 2 1.5587700227199865 17.099179411877206 4.663253384190848 0 0 0
290 2 4.6763117236060845 17.099179411877138 4.663253384190992 0 0 0
291 1 3.117540873163093 17.999136250785206 3.1043466666666473 0 0 0
292 1 6.23508257404928 17.999136250785284 3.104346666666678 0 0 0
293 2 7.793853424492417 17.09917941187714 4.66325338419101 0 0 0
294 1 9.35262427493552 17.99913625078526 3.1043466666666752 0 0 0
295 2 10.911395125378512 17.09917941187712 4.663253384191055 0 0 0
296 1 12.47016597582152 17.999136250785227 3.104346666666671 0 0 0
297 2 14.028936826264559 17.099179411877095 4.663253384191034 0 0 0
298 1 15.587707676707673 17.99913625078522 3.1043466666666735 0 0 0
299 2 17.146478527150784 17.09917941187708 4.6632533841910275 0 0 0
300 2 20.264020228036888 17.09917941187708 4.663253384191031 0 0 0
301 1 18.705249377593844 17.999136250785213 3.1043466666666677 0 0 0
302 1 21.822791078479927 17.999136250785213 3.10434666666667 0 0 0
303 2 23.381561928922928 17.09917941187708 4.663253384191054 0 0 0
304 1 24.940332779365963 17.99913625078522 3.1043466666666757 0 0 0
305 2 26.499103629808975 17.099179411877067 4.66325338419104 0 0 0
306 1 28.05787448025203 17.999136250785227 3.1043466666666695 0 0 0
307 2 29.61664533069506 17.099179411877095 4.663253384191034 0 0 0
308 1 31.17541618113812 17.999136250785206 3.104346666666675 0 0 0
309 2 32.734187031581115 17.09917941187709 4.663253384191048 0 0 0
310 2 35.85172873246712 17.099179411877078 4.663253384191037 0 0 0
311 1 34.29295788202419 17.999136250785213 3.1043466666666695 0 0 0
312 2 38.969270433353216 17.09917941187712 4.6632533841910355 0 0 0
313 1 37.41049958291026 17.99913625078519 3.104346666666667 0 0 0
314 1 1.5587700227196468 20.69900668139381 3.1043466666666357 0 0 0
315 1 4.676311723606048 20.699006681393783 3.1043466666666735 0 0 0
316 2 3.117540873162905 19.799049842485662 4.6632533841909165 0 0 0
317 1 7.793853424492316 20.699006681393907 3.104346666666665 0 0 0
318 2 6.235082574049235 19.79904984248579 4.6632533841910515 0 0 0
319 2 9.352624274935415 19.799049842485775 4.663253384191036 0 0 0
320 1 10.91139512537848 20.699006681393893 3.10434666666667 0 0 0
321 2 12.470165975821534 19.799049842485747 4.663253384191045 0 0 0
322 1 14.028936826264614 20.699006681393843 3.1043466666666757 0 0 0
323 2 15.587707676707693 19.799049842485747 4.663253384191031 0 0 0
324 1 17.146478527150784 20.69900668139385 3.104346666666673 0 0 0
325 1 20.264020228036888 20.699006681393872 3.1043466666666717 0 0 0
326 2 18.705249377593873 19.799049842485726 4.663253384191042 0 0 0
327 1 23.381561928922928 20.69900668139388 3.1043466666666686 0 0 0
328 2 21.822791078479895 19.799049842485726 4.66325338419103 0 0 0
329 2 24.940332779365963 19.799049842485733 4.66325338419104 0 0 0
330 1 26.499103629808996 20.699006681393865 3.1043466666666704 0 0 0
331 2 28.057874480252018 19.799049842485747 4.663253384191044 0 0 0
332 1 29.616645330695093 20.699006681393872 3.104346666666673 0 0 0
333 2 31.17541618113812 19.79904984248574 4.663253384191035 0 0 0
334 1 32.73418703158112 20.699006681393865 3.1043466666666784 0 0 0
335 1 35.8517287324672 20.69900668139388 3.1043466666666673 0 0 0
336 2 34.29295788202411 19.799049842485708 4.663253384191047 0 0 0
337 1 38.969270433353216 20.699006681393865 3.104346666666678 0 0 0
338 2 37.41049958291026 19.799049842485708 4.663253384191031 0 0 0
339 2 1.5587700227196382 22.498920273094562 4.663253384190901 0 0 0
340 2 4.676311723606143 22.498920273094424 4.663253384190991 0 0 0
341 1 3.117540873162967 23.398877112002516 3.104346666666737 0 0 0
342 1 6.235082574049333 23.398877112002516 3.104346666666683 0 0 0
343 2 7.793853424492375 22.498920273094413 4.663253384191047 0 0 0
344 1 9.352624274935405 23.398877112002516 3.1043466666666615 0 0 0
345 2 10.911395125378418 22.49892027309437 4.663253384191038 0 0 0
346 1 12.470165975821496 23.39887711200253 3.1043466666666686 0 0 0
347 2 14.02893682626458 22.4989202730944 4.663253384191028 0 0 0
348 1 15.587707676707693 23.398877112002516 3.1043466666666806 0 0 0
349 2 17.146478527150784 22.498920273094413 4.6632533841910195 0 0 0
350 2 20.264020228036888 22.49892027309437 4.66325338419105 0 0 0
351 1 18.705249377593844 23.398877112002516 3.1043466666666704 0 0 0
352 1 21.822791078479927 23.398877112002516 3.10434666666667 0 0 0
353 2 23.381561928922928 22.4989202730944 4.66325338419105 0 0 0
354 1 24.940332779365985 23.39887711200253 3.1043466666666704 0 0 0
355 2 26.499103629808992 22.49892027309437 4.663253384191045 0 0 0
356 1 28.05787448025203 23.39887711200253 3.104346666666675 0 0 0
357 2 29.616645330695093 22.4989202730944 4.663253384191054 0 0 0
358 1 31.17541618113812 23.398877112002516 3.1043466666666912 0 0 0
359 2 32.73418703158112 22.498920273094413 4.663253384191061 0 0 0
360 2 35.8517287324672 22.4989202730944 4.663253384191043 0 0 0
361 1 34.29295788202419 23.39887711200253 3.1043466666666673 0 0 0
362 2 38.96927043335328 22.4989202730944 4.663253384191042 0 0 0
363 1 37.41049958291026 23.398877112002488 3.1043466666666744 0 0 0
364 1 1.5587700227195649 26.098747542611143 3.1043466666667423 0 0 0
365 1 4.676311723606032 26.098747542611086 3.104346666666725 0 0 0
366 2 3.1175408731628154 25.198790703703065 4.663253384190971 0 0 0
367 1 7.7938534244923146 26.09874754261111 3.104346666666678 0 0 0
368 2 6.235082574049139 25.19879070370305 4.66325338419105 0 0 0
369 2 9.352624274935428 25.19879070370302 4.663253384191037 0 0 0
370 1 10.91139512537848 26.09874754261118 3.104346666666663 0 0 0
371 2 12.470165975821535 25.198790703703065 4.663253384191045 0 0 0
372 1 14.028936826264585 26.098747542611154 3.104346666666676 0 0 0
373 2 15.587707676707693 25.198790703703065 4.66325338419103 0 0 0
374 1 17.146478527150805 26.098747542611182 3.1043466666666735 0 0 0
375 1 20.264020228036888 26.098747542611182 3.1043466666666744 0 0 0
376 2 18.705249377593844 25.198790703703047 4.663253384191042 0 0 0
377 1 23.381561928922928 26.098747542611207 3.1043466666666695 0 0 0
378 2 21.82279107847989 25.19879070370305 4.663253384191036 0 0 0
379 2 24.940332779365963 25.19879070370302 4.6632533841910355 0 0 0
380 1 26.499103629808975 26.098747542611182 3.104346666666669 0 0 0
381 2 28.057874480252057 25.198790703703033 4.663253384191043 0 0 0
382 1 29.61664533069506 26.098747542611182 3.104346666666675 0 0 0
383 2 31.17541618113812 25.198790703703033 4.66325338419103 0 0 0
384 1 32.73418703158112 26.098747542611182 3.104346666666672 0 0 0
385 1 35.8517287324672 26.098747542611207 3.1043466666666775 0 0 0
386 2 34.29295788202419 25.198790703703033 4.663253384191046 0 0 0
387 1 38.96927043335328 26.098747542611182 3.1043466666666744 0 0 0
388 2 37.41049958291026 25.198790703703033 4.663253384191024 0 0 0
389 2 1.5587700227202816 27.89866113431174 4.663253384191202 0 0 0
390 2 4.676311723605943 27.898661134311645 4.663253384190938 0 0 0
393 2 7.793853424492422 27.89866113431166 4.663253384191033 0 0 0
395 2 10.91139512537846 27.89866113431169 4.663253384191038 0 0 0
397 2 14.028936826264559 27.898661134311713 4.663253384191042 0 0 0
399 2 17.146478527150784 27.89866113431169 4.663253384191046 0 0 0
400 2 20.264020228036888 27.89866113431169 4.6632533841910435 0 0 0
401 2 23.381561928922928 27.89866113431169 4.663253384191043 0 0 0
398 2 26.49910362980896 27.898661134311702 4.663253384191038 0 0 0
396 2 29.616645330695093 27.89866113431169 4.663253384191027 0 0 0
394 2 32.73418703158112 27.898661134311677 4.663253384191046 0 0 0
392 2 35.8517287324672 27.898661134311702 4.6632533841910515 0 0 0
391 2 38.96927043335328 27.89866113431169 4.663253384191033 0 0 0
402 3 3.117540873162767 30.59853156492026 1.545439949142479 0 0 0
403 3 6.235082574049268 30.59853156492033 1.545439949142345 0 0 0
404 3 9.352624274935488 30.598531564920325 1.5454399491422994 0 0 0
405 3 12.470165975821535 30.598531564920314 1.5454399491423065 0 0 0
406 3 15.587707676707693 30.598531564920357 1.545439949142319 0 0 0
407 3 18.705249377593844 30.59853156492033 1.5454399491423092 0 0 0
408 3 21.82279107847989 30.59853156492033 1.5454399491422977 0 0 0
409 3 24.940332779365946 30.59853156492033 1.5454399491423005 0 0 0
410 3 28.05787448025203 30.5985315649203 1.5454399491423194 0 0 0
411 3 31.175416181138104 30.59853156492033 1.5454399491422943 0 0 0
412 3 34.29295788202411 30.598531564920314 1.5454399491423114 0 0 0
413 3 37.41049958291026 30.598531564920325 1.5454399491423085 0 0 0
414 3 1.55877002271991 33.29840199552881 1.5454399491422768 0 0 0
415 3 4.676311723606188 33.29840199552902 1.5454399491423825 0 0 0
416 3 7.793853424492469 33.298401995529005 1.545439949142286 0 0 0
417 3 10.91139512537848 33.298401995529005 1.5454399491422994 0 0 0
418 3 14.028936826264585 33.29840199552902 1.545439949142325 0 0 0
419 3 17.146478527150784 33.298401995529005 1.545439949142296 0 0 0
420 3 20.264020228036888 33.29840199552902 1.545439949142303 0 0 0
421 3 23.381561928922928 33.298401995529034 1.5454399491423012 0 0 0
422 3 26.499103629808975 33.29840199552902 1.5454399491423016 0 0 0
423 3 29.616645330695043 33.29840199552902 1.5454399491423114 0 0 0
424 3 32.73418703158112 33.29840199552902 1.545439949142301 0 0 0
425 3 35.85172873246712 33.298401995529034 1.5454399491423034 0 0 0
426 3 38.969270433353216 33.29840199552899 1.5454399491423012 0 0 0
427 3 3.117540873163088 35.99827242613773 1.5454399491423862 0 0 0
428 3 6.235082574049209 35.99827242613769 1.5454399491423019 0 0 0
429 3 9.352624274935435 35.9982724261376 1.545439949142328 0 0 0
430 3 12.470165975821553 35.99827242613766 1.5454399491422988 0 0 0
431 3 15.587707676707721 35.99827242613769 1.545439949142311 0 0 0
432 3 18.705249377593873 35.998272426137675 1.5454399491423252 0 0 0
433 3 21.82279107847989 35.99827242613766 1.5454399491422848 0 0 0
434 3 24.940332779365963 35.99827242613763 1.545439949142295 0 0 0
435 3 28.05787448025203 35.998272426137646 1.5454399491422834 0 0 0
436 3 31.17541618113812 35.998272426137675 1.5454399491423059 0 0 0
437 3 34.29295788202419 35.99827242613766 1.5454399491422928 0 0 0
438 3 37.41049958291026 35.99827242613766 1.5454399491423219 0 0 0
439 3 1.5587700227200878 38.69814285674627 1.5454399491422948 0 0 0
440 3 4.676311723606046 38.6981428567463 1.5454399491423783 0 0 0
441 3 7.7938534244924575 38.698142856746266 1.5454399491423438 0 0 0
442 3 10.91139512537848 38.69814285674633 1.5454399491423032 0 0 0