LAMMPS data file via write_data, version 2 Aug 2023, timestep = 695, units = metal

27856 atoms
3 atom types

0 935.2608953916886 xlo xhi
0 86.39570011601676 ylo yhi
0 50 zlo zhi
0 0 0 xy xz yz

Masses

1 95.94
2 32.065
3 32.065

Atoms # atomic

1 3 1.5587673312673467 0.8999552471745373 1.5454396120220242 0 0 0
2 3 4.676303649237752 0.899955247174427 1.5454396120223404 0 0 0
3 3 7.793839967209141 0.899955247174365 1.5454396120223064 0 0 0
4 3 10.911376285181216 0.8999552471745123 1.5454396120223421 0 0 0
5 3 14.028912603153795 0.8999552471745283 1.545439612022359 0 0 0
6 3 17.146448921126296 0.899955247174496 1.545439612022379 0 0 0
7 3 20.263985239098755 0.8999552471744842 1.5454396120223721 0 0 0
8 3 23.38152155707109 0.8999552471744934 1.5454396120223424 0 0 0
9 3 26.499057875043402 0.8999552471744815 1.545439612022344 0 0 0
10 3 29.61659419301574 0.8999552471744943 1.5454396120223919 0 0 0
11 3 32.73413051098803 0.8999552471745154 1.545439612022357 0 0 0
12 3 35.85166682896033 0.8999552471744214 1.545439612022328 0 0 0
13 3 38.969203146932564 0.8999552471744476 1.545439612022376 0 0 0
14 3 3.1175354902519277 3.5998208758000203 1.5454396120224285 0 0 0
15 3 6.235071808223187 3.5998208757999386 1.5454396120223037 0 0 0
16 3 9.352608126195063 3.5998208758000083 1.545439612022369 0 0 0
17 3 12.470144444167511 3.599820875800047 1.5454396120223897 0 0 0
18 3 15.58768076214008 3.599820875800051 1.545439612022354 0 0 0
19 3 18.70521708011255 3.5998208758000367 1.5454396120223821 0 0 0
20 3 21.8227533980849 3.599820875800042 1.5454396120223757 0 0 0
21 3 24.940289716057176 3.5998208758000367 1.545439612022383 0 0 0
22 3 28.05782603402955 3.59982087580003 1.545439612022354 0 0 0
23 3 31.175362352001915 3.599820875800003 1.5454396120223608 0 0 0
24 3 34.292898669974115 3.599820875800035 1.5454396120223635 0 0 0
25 3 37.410434987946374 3.599820875800081 1.5454396120223912 0 0 0
26 3 1.5587673312673336 6.299686504425496 1.5454396120220546 0 0 0
27 3 4.6763036492377505 6.29968650442546 1.545439612022386 0 0 0
28 3 7.793839967209133 6.299686504425415 1.5454396120223564 0 0 0
29 3 10.911376285181216 6.299686504425517 1.5454396120223937 0 0 0
30 3 14.028912603153774 6.299686504425531 1.5454396120224037 0 0 0
31 3 17.146448921126296 6.299686504425525 1.5454396120224003 0 0 0
32 3 20.26398523909875 6.299686504425518 1.5454396120223621 0 0 0
33 3 23.381521557071085 6.2996865044255115 1.5454396120223777 0 0 0
34 3 26.499057875043402 6.299686504425538 1.5454396120223892 0 0 0
35 3 29.61659419301574 6.299686504425517 1.5454396120223952 0 0 0
36 3 32.734130510988024 6.299686504425517 1.5454396120223997 0 0 0
37 3 35.85166682896033 6.299686504425493 1.54543961202237 0 0 0
38 3 38.969203146932564 6.299686504425511 1.545439612022376 0 0 0
39 3 3.117535490251839 8.999552133051052 1.5454396120224245 0 0 0
40 3 6.235071808223181 8.999552133050926 1.5454396120223166 0 0 0
41 3 9.352608126195046 8.999552133050988 1.5454396120223857 0 0 0
42 3 12.470144444167492 8.99955213305104 1.545439612022397 0 0 0
43 3 15.587680762140044 8.999552133051033 1.5454396120224028 0 0 0
44 3 18.705217080112554 8.99955213305105 1.5454396120223837 0 0 0
45 3 21.822753398084927 8.99955213305103 1.5454396120223746 0 0 0
46 3 24.940289716057194 8.99955213305105 1.5454396120223917 0 0 0
47 3 28.05782603402955 8.99955213305101 1.5454396120223446 0 0 0
48 3 31.175362352001915 8.999552133051022 1.5454396120223686 0 0 0
49 3 34.292898669974115 8.999552133051044 1.5454396120223721 0 0 0
50 3 37.410434987946374 8.999552133051058 1.545439612022422 0 0 0
51 3 1.5587673312673318 11.699417761676543 1.545439612022017 0 0 0
52 3 4.676303649237754 11.699417761676484 1.545439612022384 0 0 0
53 3 7.7938399672091405 11.69941776167645 1.5454396120223426 0 0 0
54 3 10.911376285181216 11.699417761676553 1.5454396120223945 0 0 0
55 3 14.028912603153792 11.699417761676546 1.5454396120223994 0 0 0
56 3 17.14644892112633 11.699417761676566 1.5454396120224119 0 0 0
57 3 20.263985239098755 11.69941776167656 1.5454396120223606 0 0 0
58 3 23.381521557071085 11.699417761676553 1.5454396120223821 0 0 0
59 3 26.499057875043363 11.699417761676553 1.5454396120224072 0 0 0
60 3 29.616594193015782 11.699417761676559 1.5454396120223899 0 0 0
61 3 32.73413051098802 11.699417761676559 1.545439612022382 0 0 0
62 3 35.85166682896036 11.699417761676546 1.5454396120223772 0 0 0
63 3 38.969203146932614 11.699417761676514 1.5454396120223732 0 0 0
64 3 3.1175354902518544 14.399283390302081 1.5454396120224412 0 0 0
65 3 6.235071808223159 14.399283390302003 1.5454396120223277 0 0 0
66 3 9.352608126195046 14.399283390302056 1.5454396120223832 0 0 0
67 3 12.470144444167492 14.399283390302104 1.5454396120223919 0 0 0
68 3 15.58768076214008 14.399283390302104 1.5454396120223748 0 0 0
69 3 18.705217080112554 14.399283390302081 1.5454396120223906 0 0 0
70 3 21.82275339808489 14.399283390302092 1.5454396120223806 0 0 0
71 3 24.940289716057173 14.399283390302072 1.5454396120223952 0 0 0
72 3 28.057826034029553 14.399283390302092 1.5454396120223703 0 0 0
73 3 31.175362352001915 14.399283390302072 1.545439612022377 0 0 0
74 3 34.29289866997422 14.399283390302104 1.5454396120223866 0 0 0
75 3 37.410434987946445 14.399283390302092 1.5454396120224128 0 0 0
76 3 1.5587673312673116 17.099149018927616 1.5454396120220395 0 0 0
77 3 4.676303649237772 17.099149018927534 1.545439612022414 0 0 0
78 3 7.793839967209132 17.099149018927513 1.5454396120223601 0 0 0
79 3 10.911376285181216 17.099149018927594 1.545439612022408 0 0 0
80 3 14.028912603153792 17.099149018927626 1.545439612022413 0 0 0
81 3 17.14644892112633 17.09914901892758 1.5454396120224054 0 0 0
82 3 20.263985239098755 17.099149018927616 1.545439612022392 0 0 0
83 3 23.38152155707105 17.099149018927594 1.5454396120223752 0 0 0
84 3 26.499057875043363 17.099149018927616 1.5454396120224079 0 0 0
85 3 29.616594193015732 17.0991490189276 1.5454396120224136 0 0 0
86 3 32.73413051098795 17.099149018927587 1.5454396120223852 0 0 0
87 3 35.851666828960326 17.099149018927594 1.5454396120223892 0 0 0
88 3 38.96920314693261 17.099149018927626 1.5454396120223803 0 0 0
89 3 3.117535490251982 19.799014647553044 1.5454396120223695 0 0 0
90 3 6.235071808223195 19.799014647553026 1.5454396120223337 0 0 0
91 3 9.352608126195028 19.79901464755311 1.5454396120223828 0 0 0
92 3 12.470144444167518 19.799014647553168 1.5454396120224014 0 0 0
93 3 15.587680762140053 19.79901464755314 1.5454396120223957 0 0 0
94 3 18.705217080112554 19.79901464755319 1.5454396120223814 0 0 0
95 3 21.822753398084892 19.799014647553133 1.5454396120223879 0 0 0
96 3 24.94028971605721 19.799014647553115 1.5454396120223732 0 0 0
97 3 28.057826034029517 19.79901464755312 1.5454396120223723 0 0 0
98 3 31.175362352001876 19.79901464755312 1.5454396120223597 0 0 0
99 3 34.292898669974065 19.79901464755314 1.5454396120223801 0 0 0
100 3 37.41043498794641 19.79901464755311 1.5454396120224194 0 0 0
101 3 1.5587673312672905 22.498880276178678 1.5454396120220804 0 0 0
102 3 4.676303649237913 22.498880276178586 1.5454396120223033 0 0 0
103 3 7.7938399672091725 22.498880276178568 1.5454396120223726 0 0 0
104 3 10.911376285181216 22.498880276178642 1.545439612022368 0 0 0
105 3 14.028912603153776 22.498880276178678 1.5454396120224019 0 0 0
106 3 17.1464489211263 22.498880276178664 1.545439612022405 0 0 0
107 3 20.263985239098755 22.498880276178642 1.5454396120223748 0 0 0
108 3 23.38152155707109 22.498880276178646 1.5454396120223834 0 0 0
109 3 26.499057875043402 22.498880276178664 1.5454396120223877 0 0 0
110 3 29.616594193015757 22.498880276178642 1.5454396120223588 0 0 0
111 3 32.734130510987946 22.498880276178642 1.5454396120223637 0 0 0
112 3 35.8516668289604 22.498880276178678 1.5454396120224323 0 0 0
113 3 38.969203146932614 22.498880276178642 1.5454396120223737 0 0 0
114 3 3.117535490252009 25.198745904804262 1.5454396120222669 0 0 0
115 3 6.2350718082231955 25.198745904804074 1.5454396120223686 0 0 0
116 3 9.352608126195046 25.19874590480417 1.5454396120223914 0 0 0
117 3 12.470144444167508 25.198745904804188 1.5454396120224165 0 0 0
118 3 15.587680762140064 25.19874590480418 1.5454396120223826 0 0 0
119 3 18.705217080112554 25.19874590480418 1.545439612022389 0 0 0
120 3 21.8227533980849 25.19874590480417 1.5454396120223821 0 0 0
121 3 24.940289716057176 25.19874590480418 1.5454396120223883 0 0 0
122 3 28.05782603402955 25.198745904804156 1.5454396120223661 0 0 0
123 3 31.17536235200189 25.19874590480418 1.545439612022357 0 0 0
124 3 34.29289866997414 25.19874590480418 1.5454396120224292 0 0 0
125 3 37.410434987946445 25.198745904804184 1.5454396120223832 0 0 0
126 3 1.5587673312673256 27.898611533429733 1.5454396120220444 0 0 0
127 3 4.676303649237744 27.89861153342965 1.5454396120224008 0 0 0
128 3 7.793839967209125 27.898611533429584 1.5454396120223455 0 0 0
129 3 10.911376285181216 27.898611533429687 1.5454396120223899 0 0 0
130 3 14.028912603153774 27.898611533429687 1.5454396120223963 0 0 0
131 3 17.14644892112636 27.898611533429687 1.5454396120223985 0 0 0
132 3 20.263985239098748 27.898611533429666 1.5454396120223755 0 0 0
133 3 23.38152155707109 27.898611533429687 1.545439612022388 0 0 0
134 3 26.49905787504338 27.898611533429687 1.5454396120224125 0 0 0
135 3 29.616594193015725 27.89861153342968 1.5454396120224105 0 0 0
136 3 32.73413051098795 27.898611533429666 1.5454396120223741 0 0 0
137 3 35.85166682896031 27.898611533429637 1.5454396120223697 0 0 0
138 3 38.96920314693259 27.89861153342968 1.545439612022409 0 0 0
139 2 1.5587673312673598 0.8999552471745369 4.6632537213113245 0 0 0
140 2 4.676303649237745 0.8999552471744251 4.663253721310981 0 0 0
141 1 3.1175354902522394 1.7999104265906927 3.1043466666666655 0 0 0
142 1 6.235071808223355 1.7999104265904924 3.104346666666662 0 0 0
143 2 7.793839967209125 0.899955247174364 4.663253721311019 0 0 0
144 1 9.352608126195111 1.799910426590416 3.1043466666666673 0 0 0
145 2 10.911376285181207 0.8999552471745141 4.663253721310999 0 0 0
146 1 12.47014444416747 1.799910426590385 3.104346666666671 0 0 0
147 2 14.028912603153795 0.8999552471745268 4.663253721310975 0 0 0
148 1 15.587680762140053 1.7999104265904349 3.104346666666669 0 0 0
149 2 17.146448921126296 0.8999552471744935 4.663253721310957 0 0 0
150 2 20.263985239098755 0.8999552471744857 4.663253721310965 0 0 0
151 1 18.705217080112547 1.7999104265904047 3.1043466666666677 0 0 0
152 1 21.822753398084906 1.7999104265904218 3.104346666666671 0 0 0
153 2 23.38152155707109 0.8999552471744987 4.663253721310997 0 0 0
154 1 24.940289716057197 1.7999104265904253 3.104346666666668 0 0 0
155 2 26.499057875043402 0.8999552471744795 4.663253721310987 0 0 0
156 1 28.057826034029585 1.7999104265904406 3.104346666666668 0 0 0
157 2 29.61659419301574 0.8999552471744883 4.663253721310936 0 0 0
158 1 31.17536235200186 1.7999104265904162 3.1043466666666664 0 0 0
159 2 32.73413051098802 0.8999552471745084 4.663253721310985 0 0 0
160 2 35.85166682896038 0.8999552471744334 4.663253721310965 0 0 0
161 1 34.292898669974065 1.7999104265904458 3.1043466666666637 0 0 0
162 2 38.96920314693256 0.8999552471744446 4.663253721310967 0 0 0
163 1 37.41043498794641 1.7999104265904116 3.1043466666666384 0 0 0
164 1 1.5587673312659227 4.499776055215928 3.104346666666661 0 0 0
165 1 4.6763036492376795 4.49977605521607 3.1043466666666553 0 0 0
166 2 3.1175354902519388 3.599820875800021 4.663253721310892 0 0 0
167 1 7.793839967209078 4.49977605521593 3.10434666666667 0 0 0
168 2 6.235071808223178 3.5998208757999386 4.663253721311016 0 0 0
169 2 9.352608126195046 3.5998208758000083 4.6632537213109755 0 0 0
170 1 10.911376285181229 4.499776055215906 3.1043466666666717 0 0 0
171 2 12.470144444167492 3.599820875800047 4.663253721310952 0 0 0
172 1 14.028912603153763 4.499776055215892 3.1043466666666673 0 0 0
173 2 15.587680762140092 3.599820875800051 4.663253721310979 0 0 0
174 1 17.146448921126314 4.499776055215916 3.1043466666666664 0 0 0
175 1 20.26398523909872 4.499776055215947 3.1043466666666695 0 0 0
176 2 18.70521708011255 3.599820875800032 4.663253721310958 0 0 0
177 1 23.38152155707102 4.4997760552159525 3.104346666666667 0 0 0
178 2 21.8227533980849 3.599820875800042 4.663253721310957 0 0 0
179 2 24.940289716057176 3.599820875800039 4.66325372131095 0 0 0
180 1 26.49905787504338 4.499776055215945 3.1043466666666677 0 0 0
181 2 28.057826034029553 3.5998208758000283 4.663253721310982 0 0 0
182 1 29.616594193015764 4.499776055215923 3.1043466666666677 0 0 0
183 2 31.175362352001876 3.599820875799997 4.663253721310982 0 0 0
184 1 32.73413051098795 4.49977605521594 3.1043466666666775 0 0 0
185 1 35.85166682896033 4.499776055215958 3.10434666666667 0 0 0
186 2 34.292898669974115 3.599820875800033 4.66325372131099 0 0 0
187 1 38.96920314693259 4.499776055215954 3.10434666666667 0 0 0
188 2 37.410434987946374 3.5998208758000487 4.663253721310912 0 0 0
189 2 1.5587673312673351 6.299686504425507 4.663253721311242 0 0 0
190 2 4.6763036492377354 6.29968650442546 4.6632537213109195 0 0 0
191 1 3.117535490252227 7.1996416838417 3.1043466666666473 0 0 0
192 1 6.235071808223367 7.199641683841511 3.104346666666659 0 0 0
193 2 7.793839967209124 6.2996865044254315 4.66325372131098 0 0 0
194 1 9.352608126195108 7.199641683841417 3.104346666666672 0 0 0
195 2 10.911376285181216 6.2996865044255115 4.663253721310951 0 0 0
196 1 12.470144444167499 7.199641683841386 3.1043466666666695 0 0 0
197 2 14.028912603153776 6.2996865044255115 4.663253721310929 0 0 0
198 1 15.587680762140064 7.199641683841427 3.1043466666666704 0 0 0
199 2 17.146448921126296 6.299686504425518 4.663253721310941 0 0 0
200 2 20.263985239098755 6.299686504425517 4.663253721310977 0 0 0
201 1 18.705217080112583 7.19964168384141 3.1043466666666713 0 0 0
202 1 21.822753398084906 7.199641683841465 3.1043466666666673 0 0 0
203 2 23.381521557071085 6.299686504425517 4.663253721310954 0 0 0
204 1 24.940289716057197 7.1996416838414525 3.1043466666666655 0 0 0
205 2 26.499057875043402 6.299686504425541 4.663253721310944 0 0 0
206 1 28.05782603402952 7.199641683841458 3.1043466666666717 0 0 0
207 2 29.61659419301574 6.299686504425517 4.663253721310943 0 0 0
208 1 31.175362352001837 7.199641683841465 3.104346666666669 0 0 0
209 2 32.734130510988 6.29968650442552 4.66325372131094 0 0 0
210 2 35.85166682896038 6.299686504425507 4.663253721310958 0 0 0
211 1 34.292898669974115 7.1996416838414525 3.1043466666666637 0 0 0
212 2 38.969203146932614 6.299686504425511 4.663253721310966 0 0 0
213 1 37.41043498794641 7.199641683841421 3.104346666666667 0 0 0
214 1 1.558767331265828 9.899507312467028 3.10434666666666 0 0 0
215 1 4.676303649237677 9.899507312467101 3.104346666666644 0 0 0
216 2 3.117535490251843 8.99955213305104 4.663253721310856 0 0 0
217 1 7.793839967209067 9.899507312466953 3.1043466666666695 0 0 0
218 2 6.235071808223159 8.999552133050926 4.663253721311 0 0 0
219 2 9.352608126195046 8.999552133050988 4.663253721310958 0 0 0
220 1 10.911376285181229 9.899507312466913 3.1043466666666752 0 0 0
221 2 12.470144444167492 8.99955213305103 4.663253721310942 0 0 0
222 1 14.028912603153774 9.89950731246693 3.1043466666666664 0 0 0
223 2 15.58768076214004 8.999552133051033 4.663253721310931 0 0 0
224 1 17.146448921126325 9.899507312466946 3.1043466666666664 0 0 0
225 1 20.26398523909871 9.899507312466994 3.1043466666666744 0 0 0
226 2 18.70521708011259 8.999552133051058 4.66325372131095 0 0 0
227 1 23.38152155707102 9.899507312466994 3.1043466666666664 0 0 0
228 2 21.8227533980849 8.99955213305103 4.663253721310964 0 0 0
229 2 24.940289716057194 8.999552133051047 4.663253721310939 0 0 0
230 1 26.49905787504338 9.89950731246696 3.1043466666666615 0 0 0
231 2 28.05782603402955 8.99955213305101 4.66325372131099 0 0 0
232 1 29.616594193015732 9.899507312466929 3.1043466666666757 0 0 0
233 2 31.175362352001915 8.999552133051022 4.66325372131097 0 0 0
234 1 32.73413051098795 9.899507312466966 3.1043466666666717 0 0 0
235 1 35.85166682896033 9.899507312467001 3.1043466666666673 0 0 0
236 2 34.292898669974115 8.999552133051033 4.663253721310954 0 0 0
237 1 38.96920314693263 9.89950731246699 3.1043466666666713 0 0 0
238 2 37.410434987946374 8.999552133051047 4.663253721310905 0 0 0
239 2 1.558767331267333 11.699417761676564 4.6632537213112775 0 0 0
240 2 4.676303649237744 11.699417761676475 4.663253721310927 0 0 0
241 1 3.1175354902522128 12.599372941092753 3.1043466666666553 0 0 0
242 1 6.23507180822335 12.599372941092568 3.10434666666666 0 0 0
243 2 7.793839967209124 11.69941776167645 4.663253721310992 0 0 0
244 1 9.35260812619512 12.599372941092492 3.1043466666666713 0 0 0
245 2 10.911376285181216 11.699417761676553 4.663253721310949 0 0 0
246 1 12.470144444167461 12.59937294109245 3.1043466666666704 0 0 0
247 2 14.028912603153772 11.699417761676546 4.6632537213109275 0 0 0
248 1 15.587680762140053 12.599372941092476 3.10434666666667 0 0 0
249 2 17.14644892112633 11.699417761676566 4.6632537213109275 0 0 0
250 2 20.263985239098755 11.69941776167656 4.663253721310977 0 0 0
251 1 18.705217080112547 12.599372941092476 3.1043466666666677 0 0 0
252 1 21.822753398084885 12.599372941092483 3.1043466666666677 0 0 0
253 2 23.381521557071085 11.699417761676553 4.663253721310949 0 0 0
254 1 24.940289716057173 12.599372941092483 3.1043466666666744 0 0 0
255 2 26.499057875043402 11.699417761676553 4.663253721310922 0 0 0
256 1 28.057826034029517 12.599372941092476 3.1043466666666597 0 0 0
257 2 29.616594193015732 11.699417761676559 4.6632537213109595 0 0 0
258 1 31.175362352001837 12.599372941092524 3.1043466666666655 0 0 0
259 2 32.73413051098795 11.699417761676587 4.663253721310956 0 0 0
260 2 35.8516668289604 11.699417761676546 4.663253721310973 0 0 0
261 1 34.29289866997411 12.599372941092499 3.1043466666666695 0 0 0
262 2 38.96920314693259 11.699417761676514 4.663253721310972 0 0 0
263 1 37.410434987946424 12.599372941092492 3.1043466666666775 0 0 0
264 1 1.5587673312658317 15.299238569718069 3.1043466666666504 0 0 0
265 1 4.6763036492376795 15.299238569718149 3.104346666666668 0 0 0
266 2 3.117535490251832 14.399283390302111 4.663253721310854 0 0 0
267 1 7.793839967209067 15.299238569718012 3.1043466666666664 0 0 0
268 2 6.235071808223163 14.399283390301996 4.663253721310997 0 0 0
269 2 9.352608126195028 14.399283390302058 4.663253721310957 0 0 0
270 1 10.911376285181241 15.299238569717957 3.1043466666666744 0 0 0
271 2 12.470144444167492 14.399283390302104 4.663253721310938 0 0 0
272 1 14.028912603153787 15.299238569718 3.1043466666666646 0 0 0
273 2 15.587680762140092 14.399283390302095 4.663253721310943 0 0 0
274 1 17.146448921126314 15.299238569717993 3.1043466666666677 0 0 0
275 1 20.263985239098773 15.299238569717993 3.1043466666666664 0 0 0
276 2 18.70521708011259 14.399283390302095 4.663253721310943 0 0 0
277 1 23.38152155707109 15.299238569717986 3.10434666666667 0 0 0
278 2 21.82275339808489 14.399283390302092 4.663253721310958 0 0 0
279 2 24.940289716057173 14.399283390302065 4.663253721310943 0 0 0
280 1 26.499057875043352 15.299238569718007 3.1043466666666757 0 0 0
281 2 28.057826034029553 14.399283390302092 4.663253721310986 0 0 0
282 1 29.616594193015693 15.299238569717986 3.104346666666678 0 0 0
283 2 31.17536235200189 14.399283390302072 4.663253721310956 0 0 0
284 1 32.73413051098795 15.299238569717966 3.1043466666666677 0 0 0
285 1 35.8516668289604 15.299238569718048 3.1043466666666744 0 0 0
286 2 34.29289866997422 14.399283390302095 4.663253721310949 0 0 0
287 1 38.969203146932564 15.29923856971802 3.104346666666667 0 0 0
288 2 37.410434987946445 14.39928339030212 4.663253721310932 0 0 0
289 2 1.5587673312672508 17.099149018927626 4.663253721311235 0 0 0
290 2 4.676303649237754 17.099149018927534 4.6632537213109435 0 0 0
291 1 3.117535490252227 17.99910419834376 3.104346666666668 0 0 0
292 1 6.235071808223359 17.9991041983436 3.104346666666679 0 0 0
293 2 7.793839967209124 17.099149018927513 4.663253721310984 0 0 0
294 1 9.352608126195138 17.999104198343503 3.1043466666666664 0 0 0
295 2 10.911376285181216 17.0991490189276 4.663253721310933 0 0 0
296 1 12.470144444167474 17.99910419834351 3.104346666666669 0 0 0
297 2 14.028912603153794 17.09914901892762 4.663253721310916 0 0 0
298 1 15.587680762140083 17.999104198343517 3.1043466666666677 0 0 0
299 2 17.1464489211263 17.099149018927616 4.663253721310942 0 0 0
300 2 20.263985239098755 17.099149018927594 4.663253721310949 0 0 0
301 1 18.705217080112554 17.999104198343495 3.1043466666666717 0 0 0
302 1 21.822753398084963 17.999104198343478 3.1043466666666726 0 0 0
303 2 23.38152155707105 17.099149018927594 4.663253721310958 0 0 0
304 1 24.940289716057233 17.999104198343495 3.104346666666662 0 0 0
305 2 26.499057875043363 17.0991490189276 4.663253721310929 0 0 0
306 1 28.057826034029585 17.999104198343513 3.1043466666666775 0 0 0
307 2 29.616594193015732 17.099149018927616 4.663253721310936 0 0 0
308 1 31.17536235200187 17.999104198343524 3.1043466666666606 0 0 0
309 2 32.73413051098795 17.099149018927587 4.663253721310929 0 0 0
310 2 35.85166682896033 17.099149018927594 4.6632537213109675 0 0 0
311 1 34.292898669974065 17.99910419834349 3.104346666666672 0 0 0
312 2 38.969203146932564 17.09914901892764 4.663253721310949 0 0 0
313 1 37.410434987946374 17.999104198343478 3.1043466666666752 0 0 0
314 1 1.5587673312658406 20.698969826969076 3.104346666666575 0 0 0
315 1 4.676303649237694 20.698969826969183 3.1043466666666477 0 0 0
316 2 3.117535490251829 19.799014647553175 4.663253721310845 0 0 0
317 1 7.793839967209074 20.698969826969073 3.1043466666666872 0 0 0
318 2 6.235071808223176 19.79901464755305 4.663253721311028 0 0 0
319 2 9.352608126195065 19.79901464755308 4.663253721310965 0 0 0
320 1 10.911376285181232 20.69896982696902 3.1043466666666575 0 0 0
321 2 12.470144444167492 19.79901464755316 4.663253721310945 0 0 0
322 1 14.028912603153792 20.69896982696904 3.104346666666679 0 0 0
323 2 15.587680762140064 19.799014647553147 4.6632537213109515 0 0 0
324 1 17.146448921126296 20.698969826969073 3.104346666666679 0 0 0
325 1 20.263985239098716 20.698969826969048 3.104346666666669 0 0 0
326 2 18.705217080112554 19.79901464755316 4.663253721310961 0 0 0
327 1 23.38152155707104 20.698969826969055 3.1043466666666752 0 0 0
328 2 21.822753398084924 19.799014647553133 4.663253721310957 0 0 0
329 2 24.94028971605721 19.79901464755311 4.663253721310955 0 0 0
330 1 26.499057875043363 20.698969826969005 3.104346666666676 0 0 0
331 2 28.05782603402955 19.79901464755312 4.663253721310969 0 0 0
332 1 29.616594193015732 20.698969826969073 3.1043466666666553 0 0 0
333 2 31.175362352001876 19.799014647553086 4.663253721310971 0 0 0
334 1 32.734130510988024 20.698969826969087 3.1043466666666752 0 0 0
335 1 35.851666828960326 20.69896982696906 3.104346666666679 0 0 0
336 2 34.292898669974065 19.79901464755314 4.663253721310965 0 0 0
337 1 38.969203146932564 20.6989698269691 3.104346666666661 0 0 0
338 2 37.410434987946445 19.79901464755319 4.663253721310935 0 0 0
339 2 1.5587673312672434 22.49888027617855 4.663253721311332 0 0 0
340 2 4.676303649237614 22.498880276178678 4.663253721310856 0 0 0
341 1 3.11753549025218 23.398835455594803 3.1043466666665394 0 0 0
342 1 6.235071808223387 23.398835455594675 3.104346666666676 0 0 0
343 2 7.793839967209153 22.49888027617855 4.663253721311004 0 0 0
344 1 9.352608126195133 23.398835455594558 3.104346666666671 0 0 0
345 2 10.911376285181216 22.498880276178678 4.663253721310947 0 0 0
346 1 12.470144444167513 23.398835455594515 3.1043466666666664 0 0 0
347 2 14.028912603153776 22.498880276178678 4.663253721310948 0 0 0
348 1 15.587680762140103 23.398835455594572 3.1043466666666757 0 0 0
349 2 17.1464489211263 22.498880276178642 4.663253721310951 0 0 0
350 2 20.263985239098755 22.498880276178642 4.663253721310963 0 0 0
351 1 18.705217080112583 23.39883545559458 3.104346666666668 0 0 0
352 1 21.822753398084927 23.398835455594565 3.1043466666666752 0 0 0
353 2 23.381521557071085 22.498880276178646 4.663253721310973 0 0 0
354 1 24.94028971605718 23.398835455594558 3.10434666666667 0 0 0
355 2 26.499057875043363 22.498880276178664 4.663253721310951 0 0 0
356 1 28.057826034029507 23.39883545559458 3.104346666666659 0 0 0
357 2 29.616594193015725 22.498880276178642 4.663253721310934 0 0 0
358 1 31.175362352001837 23.398835455594572 3.1043466666666717 0 0 0
359 2 32.73413051098795 22.498880276178642 4.663253721310976 0 0 0
360 2 35.851666828960326 22.498880276178664 4.663253721310945 0 0 0
361 1 34.29289866997407 23.398835455594565 3.104346666666664 0 0 0
362 2 38.969203146932614 22.498880276178642 4.66325372131095 0 0 0
363 1 37.410434987946445 23.398835455594558 3.104346666666689 0 0 0
364 1 1.55876733126597 26.098701084220036 3.1043466666665624 0 0 0
365 1 4.676303649237678 26.098701084220227 3.1043466666666477 0 0 0
366 2 3.117535490251843 25.198745904804106 4.663253721310709 0 0 0
367 1 7.793839967209084 26.098701084220124 3.1043466666666846 0 0 0
368 2 6.235071808223176 25.198745904804085 4.663253721310992 0 0 0
369 2 9.352608126195083 25.198745904804134 4.6632537213109515 0 0 0
370 1 10.91137628518125 26.09870108422003 3.1043466666666664 0 0 0
371 2 12.470144444167508 25.19874590480418 4.663253721310923 0 0 0
372 1 14.028912603153787 26.09870108422002 3.1043466666666686 0 0 0
373 2 15.587680762140064 25.19874590480418 4.663253721310952 0 0 0
374 1 17.1464489211263 26.09870108422003 3.1043466666666704 0 0 0
375 1 20.26398523909872 26.098701084220057 3.1043466666666664 0 0 0
376 2 18.705217080112554 25.19874590480418 4.663253721310951 0 0 0
377 1 23.381521557071043 26.098701084220096 3.1043466666666673 0 0 0
378 2 21.82275339808489 25.19874590480418 4.663253721310946 0 0 0
379 2 24.940289716057194 25.1987459048042 4.663253721310965 0 0 0
380 1 26.499057875043352 26.09870108422003 3.1043466666666863 0 0 0
381 2 28.05782603402955 25.19874590480417 4.663253721310974 0 0 0
382 1 29.616594193015693 26.09870108422007 3.1043466666666713 0 0 0
383 2 31.175362352001876 25.19874590480414 4.663253721310987 0 0 0
384 1 32.73413051098803 26.098701084220057 3.104346666666681 0 0 0
385 1 35.85166682896038 26.098701084220117 3.104346666666685 0 0 0
386 2 34.29289866997414 25.198745904804156 4.663253721310936 0 0 0
387 1 38.969203146932564 26.098701084220085 3.104346666666661 0 0 0
388 2 37.410434987946445 25.19874590480418 4.663253721310979 0 0 0
389 2 1.5587673312673294 27.898611533429488 4.663253721311218 0 0 0
390 2 4.676303649237735 27.898611533429637 4.663253721310972 0 0 0
393 2 7.793839967209133 27.898611533429623 4.663253721310996 0 0 0
395 2 10.911376285181216 27.898611533429666 4.663253721310939 0 0 0
397 2 14.028912603153772 27.8986115334297 4.663253721310943 0 0 0
399 2 17.14644892112633 27.89861153342968 4.663253721310926 0 0 0
400 2 20.26398523909875 27.898611533429666 4.663253721310955 0 0 0
401 2 23.381521557071085 27.89861153342965 4.663253721310965 0 0 0
398 2 26.49905787504338 27.898611533429687 4.663253721310933 0 0 0
396 2 29.616594193015725 27.898611533429687 4.663253721310954 0 0 0
394 2 32.734130510988024 27.89861153342968 4.663253721310956 0 0 0
392 2 35.851666828960326 27.898611533429637 4.66325372131095 0 0 0
391 2 38.96920314693259 27.898611533429666 4.663253721310935 0 0 0
402 3 3.117535490251865 30.598477162055165 1.545439612022498 0 0 0
403 3 6.235071808223181 30.598477162055055 1.5454396120223286 0 0 0
404 3 9.35260812619505 30.598477162055122 1.5454396120223861 0 0 0
405 3 12.470144444167508 30.598477162055232 1.5454396120224136 0 0 0
406 3 15.587680762140064 30.598477162055207 1.5454396120224008 0 0 0
407 3 18.705217080112554 30.598477162055225 1.545439612022363 0 0 0
408 3 21.822753398084906 30.59847716205518 1.5454396120223828 0 0 0
409 3 24.940289716057176 30.598477162055122 1.5454396120223772 0 0 0
410 3 28.057826034029546 30.598477162055218 1.5454396120223624 0 0 0
411 3 31.17536235200189 30.598477162055165 1.5454396120223917 0 0 0
412 3 34.292898669974186 30.598477162055165 1.5454396120223652 0 0 0
413 3 37.410434987946374 30.59847716205521 1.5454396120224325 0 0 0
414 3 1.5587673312673225 33.298342790680685 1.5454396120220282 0 0 0
415 3 4.676303649237753 33.2983427906807 1.5454396120223666 0 0 0
416 3 7.793839967209143 33.29834279068063 1.5454396120223353 0 0 0
417 3 10.911376285181207 33.29834279068073 1.5454396120223761 0 0 0
418 3 14.028912603153799 33.29834279068074 1.5454396120223937 0 0 0
419 3 17.1464489211263 33.29834279068073 1.5454396120224003 0 0 0
420 3 20.263985239098748 33.29834279068066 1.545439612022357 0 0 0
421 3 23.38152155707106 33.29834279068071 1.5454396120223826 0 0 0
422 3 26.499057875043363 33.29834279068073 1.5454396120223861 0 0 0
423 3 29.61659419301568 33.298342790680756 1.5454396120223937 0 0 0
424 3 32.73413051098795 33.29834279068073 1.5454396120224145 0 0 0
425 3 35.85166682896038 33.29834279068066 1.5454396120223646 0 0 0
426 3 38.96920314693263 33.298342790680756 1.5454396120223746 0 0 0
427 3 3.1175354902518735 35.998208419306216 1.5454396120224358 0 0 0
428 3 6.235071808223189 35.998208419306124 1.5454396120223293 0 0 0
429 3 9.352608126195063 35.99820841930619 1.5454396120223808 0 0 0
430 3 12.470144444167492 35.99820841930626 1.5454396120223919 0 0 0
431 3 15.587680762140044 35.99820841930623 1.5454396120223755 0 0 0
432 3 18.705217080112554 35.998208419306245 1.5454396120223675 0 0 0
433 3 21.822753398084924 35.99820841930627 1.5454396120223957 0 0 0
434 3 24.940289716057137 35.99820841930627 1.545439612022386 0 0 0
435 3 28.057826034029514 35.998208419306245 1.5454396120223706 0 0 0
436 3 31.175362352001876 35.998208419306245 1.5454396120223832 0 0 0
437 3 34.29289866997413 35.9982084193063 1.545439612022399 0 0 0
438 3 37.4104349879464 35.9982084193063 1.5454396120223186 0 0 0
439 3 1.5587673312673835 38.69807404793169 1.545439612022022 0 0 0
440 3 4.676303649237753 38.69807404793168 1.5454396120223932 0 0 0
441 3 7.793839967209145 38.69807404793165 1.5454396120223335 0 0 0
442 3 10.911376285181236 38.69807404793175 1.5454396120223866 0 0 0