LAMMPS data file via write_data, version 21 Nov 2023, timestep = 187, units = metal

28705 atoms
3 atom types

0 935.2625378722587 xlo xhi
0 86.39585278696288 ylo yhi
0 50 zlo zhi
0 0 0 xy xz yz

Masses

1 95.94
2 32.065
3 32.065

Atoms # atomic

28705 3 1.55877276959608 0.8999559289494231 1.5454360792699513 0 0 0
21177 3 4.6763126600044 0.8999566381904118 1.545440665724832 0 0 0
21176 3 7.793853418907816 0.8999568356741724 1.5454409311683024 0 0 0
21175 3 10.911393390631792 0.8999558150100551 1.545439668662987 0 0 0
21174 3 14.028936437149714 0.899955702750956 1.5454350437979487 0 0 0
21173 3 17.1464926975432 0.8999634367520095 1.5454448580362319 0 0 0
21172 3 20.264040408827253 0.8999682380624593 1.5454773858330615 0 0 0
21171 3 23.38159846535207 0.9000011732768565 1.5455287334261505 0 0 0
21170 3 26.499074522638548 0.8999974700637708 1.5455367193270613 0 0 0
21169 3 3.1175428407079364 3.599827304511046 1.5454397181515036 0 0 0
21168 3 6.2350827505803625 3.599827241596788 1.5454409108833942 0 0 0
21167 3 9.352623475935845 3.5998270849330942 1.545440668864204 0 0 0
21166 3 12.470163181380741 3.599826277572162 1.5454363296561349 0 0 0
21165 3 15.587714217604073 3.5998284975889883 1.5454357627151603 0 0 0
21164 3 18.705275733085905 3.5998264691714343 1.545461429816069 0 0 0
21163 3 21.822847963676846 3.599836242350547 1.5455287379540836 0 0 0
21162 3 24.94033060874043 3.5998256401918796 1.5454428519961267 0 0 0
21161 3 28.05782462686069 3.59982808240226 1.5455306079855047 0 0 0
21178 3 1.5587722152256043 6.299698700222874 1.5454393952352485 0 0 0
21180 3 4.676311888648874 6.299697683998725 1.5454408846890217 0 0 0
21199 3 7.793853346402199 6.299697631975377 1.5454408519562404 0 0 0
21181 3 10.911393144095085 6.29969765220149 1.545440079338047 0 0 0
21198 3 14.028932179727585 6.2996977363693105 1.545433071293518 0 0 0
21197 3 17.146487188479536 6.299694808617046 1.545436290338435 0 0 0
21196 3 20.264046299985914 6.299692168881241 1.5454700292071628 0 0 0
21195 3 23.381582786238972 6.299651554608652 1.5455367277896315 0 0 0
21194 3 26.49907973323793 6.299653438109056 1.545530610952456 0 0 0
21193 3 3.117541015739237 8.999568154028095 1.5454409582583104 0 0 0
21192 3 6.235082600687872 8.999568031416704 1.5454406250019581 0 0 0
21191 3 9.352624059189678 8.999568007838107 1.5454411468124787 0 0 0
21190 3 12.470162140571128 8.999567846372537 1.5454383002021908 0 0 0
21189 3 15.587706227742878 8.99957020969714 1.5454290421979815 0 0 0
21188 3 18.705270607980392 8.999570184446007 1.5454460037957332 0 0 0
21187 3 21.822819860083303 8.999566829678406 1.5454912459772503 0 0 0
21186 3 24.94033219538831 8.99956643787331 1.5455115593375641 0 0 0
21185 3 28.057846083327693 8.999569723283182 1.5454864740734076 0 0 0
21184 3 1.5587700622315304 11.699438578935121 1.5454408890097948 0 0 0
21183 3 4.676311691466192 11.699438424290545 1.545440596393475 0 0 0
21182 3 7.793853404379291 11.699438458168853 1.5454408112792644 0 0 0
21160 3 10.911393146999865 11.69943757175144 1.5454400218831028 0 0 0
21159 3 14.0289343898707 11.6994388903147 1.5454336331591518 0 0 0
21158 3 17.146491196955903 11.699447863795383 1.5454381420732752 0 0 0
21157 3 20.264045274495068 11.699443542224374 1.5454752953445638 0 0 0
21135 3 23.381601225837315 11.699467067482605 1.545539357086418 0 0 0
21134 3 26.499065038675976 11.699467819104713 1.545539204102474 0 0 0
21133 3 3.1175407902928214 14.39930883138304 1.545440578800212 0 0 0
21132 3 6.235082567011153 14.399308851292746 1.5454406718837719 0 0 0
21131 3 9.352623430237685 14.399308655297604 1.5454406699329108 0 0 0
21130 3 12.470163152596994 14.39930808580943 1.5454363931497757 0 0 0
21129 3 15.587714945527363 14.399312995708947 1.5454358427521175 0 0 0
21136 3 18.70527763037064 14.399312985687127 1.54546116421876 0 0 0
21128 3 21.82285194754522 14.39932114816273 1.5455310224905938 0 0 0
21126 3 24.940333321691433 14.39930799129729 1.5454513362003461 0 0 0
21125 3 28.05781467573652 14.399321198967364 1.5455312417347842 0 0 0
21124 3 1.5587699054837745 17.09917924208677 1.5454405713340447 0 0 0
21123 3 4.676311680934365 17.099179225815494 1.5454405694600772 0 0 0
21122 3 7.79385329890936 17.09917922226243 1.5454408039180207 0 0 0
21121 3 10.91139323268255 17.09917931293644 1.5454397386178886 0 0 0
21120 3 14.028934049444707 17.099180364863454 1.545434411362114 0 0 0
21127 3 17.14648803862125 17.099177346820554 1.5454421019654707 0 0 0
21137 3 20.264040295635056 17.0991699445936 1.5454726174066218 0 0 0
21138 3 23.381582886429943 17.09912385255841 1.545535876747913 0 0 0
21139 3 26.49908381473244 17.09912384319264 1.5455358851609058 0 0 0
21156 3 3.117540796428597 19.79904962843256 1.5454405672708926 0 0 0
21155 3 6.2350825843549105 19.799049620956126 1.5454405842060726 0 0 0
21154 3 9.352624169377757 19.799049691544365 1.5454408855628219 0 0 0
21153 3 12.470163860744655 19.799050715855795 1.5454393968832894 0 0 0
21152 3 15.587705188585252 19.799051226772132 1.545434238650964 0 0 0
21151 3 18.70525686022532 19.799042847420537 1.545442245265884 0 0 0
21150 3 21.822804757998263 19.799024456350946 1.5454658915190644 0 0 0
21149 3 24.940333349845023 19.79902322106405 1.545479519316495 0 0 0
21148 3 28.057861942028783 19.799024458569146 1.5454658887937684 0 0 0
21147 3 1.5587699034068268 22.498920026006928 1.5454405729308667 0 0 0
21146 3 4.6763116911941305 22.498920026462432 1.5454405669590354 0 0 0
21145 3 7.793853493833948 22.498920024236515 1.5454405982879742 0 0 0
21144 3 10.911395057653626 22.498920156418578 1.5454409638893456 0 0 0
21143 3 14.028934987730628 22.498921500237287 1.5454393924643834 0 0 0
21142 3 17.14647655719652 22.498922078345704 1.5454341791202069 0 0 0
21141 3 20.264022585578687 22.49891180631331 1.545436703135149 0 0 0
21140 3 23.38156340313848 22.49890362368542 1.5454445601733127 0 0 0
21179 3 26.4991032967955 22.498903623696638 1.5454445602390174 0 0 0
21200 3 3.1175407994124225 25.1987904244257 1.5454405726060219 0 0 0
21201 3 6.2350825874882405 25.19879042716916 1.5454405652503072 0 0 0
21202 3 9.35262438835167 25.198790420347 1.5454405975455618 0 0 0
21261 3 12.470166016905814 25.198790579069573 1.5454408888845677 0 0 0
21260 3 15.587706879252115 25.198792161639435 1.545439725196153 0 0 0
21259 3 18.70524910632183 25.19879335425223 1.5454360735985242 0 0 0
21258 3 21.822792126150325 25.198791445160854 1.545434803151216 0 0 0
21257 3 24.940333349993445 25.198789245186035 1.5454354926170633 0 0 0
21256 3 28.057874573835736 25.198791445161184 1.545434803149281 0 0 0
21255 3 1.5587699031815259 27.898660823847337 1.5454405730388343 0 0 0
21254 3 4.676311695848655 27.898660823990266 1.5454405732841225 0 0 0
21253 3 7.79385348505803 27.898660827304475 1.5454405669327616 0 0 0
21252 3 10.911395281610595 27.898660833115247 1.5454405846269577 0 0 0
21251 3 14.028936987544247 27.8986609886742 1.5454408098730834 0 0 0
21250 3 17.14647853301654 27.89866173700632 1.5454406452695588 0 0 0
21249 3 20.26402055636929 27.898662971071147 1.5454396292966124 0 0 0
21248 3 23.381562677352566 27.898662944706317 1.5454394752180878 0 0 0
21247 3 26.499104022633485 27.898662944706345 1.545439475218099 0 0 0
17883 2 1.5587677241462357 0.8999574563142217 4.663248852019071 0 0 0
6681 1 3.1175412409056427 1.7999135926463228 3.1043457506149 0 0 0
17882 2 4.676311399055437 0.8999568375965142 4.6632535408080065 0 0 0
6683 1 6.235082748949713 1.7999136416672907 3.104347388926101 0 0 0
17881 2 7.793853540273019 0.8999567229504059 4.66325381321106 0 0 0
6684 1 9.35262422483543 1.7999135738103123 3.1043471843527106 0 0 0
6685 1 12.470165855311604 1.7999134346041026 3.104343232770377 0 0 0
17785 2 10.911396584976096 0.8999575361412497 4.663252567442145 0 0 0
6687 1 15.587708210328877 1.7999138425826258 3.1043416204648593 0 0 0
17784 2 14.02893744279578 0.8999579778924319 4.663247929431627 0 0 0
17783 2 17.146467175522968 0.8999523825336176 4.663257688476083 0 0 0
6669 1 18.705252172755994 1.7999147259743846 3.1043690528881527 0 0 0
17763 2 20.26400559124493 0.8999481372752574 4.663291627358488 0 0 0
6653 1 21.822791388335695 1.7999135295255497 3.1044137736394535 0 0 0
17683 2 23.381551674790845 0.8999316263087702 4.663319506535779 0 0 0
6655 1 24.940332348011673 1.7999989709162192 3.1044673592565197 0 0 0
17682 2 26.499106914835927 0.8999369979071765 4.66332761487758 0 0 0
6656 1 28.05787514873937 1.799912780513028 3.104425443467581 0 0 0
6657 1 1.558770972728788 4.499784233843456 3.1043444814054317 0 0 0
6658 1 4.67631214118526 4.499784128749925 3.1043472949245134 0 0 0
17681 2 3.117540382122385 3.5998270233590905 4.6632526628438375 0 0 0
6660 1 7.7938533806318855 4.499784061450206 3.1043473602739935 0 0 0
17680 2 6.235082709613335 3.5998271489090934 4.663253822997853 0 0 0
17679 2 9.352624629246499 3.599827152726972 4.663253553058592 0 0 0
6662 1 10.911394797378753 4.4997839696299025 3.1043459764215773 0 0 0
17678 2 12.470168300358587 3.5998278057266226 4.663249116108251 0 0 0
6664 1 14.02893714159741 4.499783893434694 3.104339680772293 0 0 0
17677 2 15.58770458446803 3.5998267747181187 4.663248316470457 0 0 0
6666 1 17.146482181494207 4.4997838120326135 3.104347673408774 0 0 0
6667 1 20.264030033547453 4.4997887169705 3.1043854725552196 0 0 0
17676 2 18.705238809863044 3.5998318933219853 4.663273136084758 0 0 0
6689 1 23.38163586662628 4.499740474946928 3.104467365225361 0 0 0
17675 2 21.822764335675345 3.5998304899620823 4.6633195118530475 0 0 0
6691 1 26.499030450441253 4.499741409842924 3.1044607581650685 0 0 0
17674 2 28.057894123150604 3.599836597842228 4.663321655556639 0 0 0
17673 2 1.5587694265384553 6.299697045377906 4.663252356042881 0 0 0
6716 1 3.117541359413345 7.199654666768619 3.1043474052464957 0 0 0
17672 2 4.676311973554778 6.299697658052098 4.663253801292371 0 0 0
6718 1 6.235082606519315 7.199654495461983 3.104347153025207 0 0 0
17671 2 7.793853202987422 6.299697589123098 4.6632537605005195 0 0 0
6720 1 9.352623868186091 7.199654498058396 3.104347491915688 0 0 0
6728 1 12.470164979794196 7.199654558783776 3.1043446883555594 0 0 0
17670 2 10.911395609320678 6.299697381773312 4.663253037259586 0 0 0
6722 1 15.587707280254786 7.19965470317034 3.104335371940354 0 0 0
17684 2 14.028939541536168 6.299697625206572 4.6632458204975835 0 0 0
17685 2 17.146471501424056 6.299701189172517 4.663248926482143 0 0 0
6725 1 18.705251203843282 7.199654165701731 3.104350674219169 0 0 0
17686 2 20.264000198255644 6.299704148713153 4.663284283010573 0 0 0
6727 1 21.822794365778254 7.199647227307643 3.1043975489057822 0 0 0
17687 2 23.38154661714357 6.299709843480464 4.663327621780118 0 0 0
6719 1 24.94033262369898 7.199654842217007 3.1044254465661134 0 0 0
17703 2 26.499121854009278 6.299709361624937 4.663321655603197 0 0 0
6710 1 28.057872076711863 7.1996469062102 3.104389745340509 0 0 0
6699 1 1.558770395977781 9.899525201726746 3.1043474103373057 0 0 0
6692 1 4.676311795748114 9.899524898188307 3.104347119562487 0 0 0
17702 2 3.1175410315810366 8.999568162361594 4.663253876044767 0 0 0
6694 1 7.793853340944093 9.899524859737818 3.104347238440584 0 0 0
17701 2 6.235082553306109 8.99956805167401 4.663253500133896 0 0 0
17700 2 9.352624023686122 8.999568019113052 4.663254071681705 0 0 0
6697 1 10.911394584373564 9.899524953712184 3.1043474228686585 0 0 0
17699 2 12.47016811926976 8.999568480130211 4.663251282159659 0 0 0
6700 1 14.028935849528546 9.899525483054664 3.1043400000845818 0 0 0
17698 2 15.5877077530528 8.999567698739781 4.6632417157510675 0 0 0
6701 1 17.146479283649327 9.899525815120716 3.104336757319767 0 0 0
6702 1 20.26402524450664 9.899523774335577 3.1043746010170894 0 0 0
17697 2 18.705232451909566 8.999566066075259 4.663258554250865 0 0 0
6703 1 23.38157091889244 9.899528632728508 3.1044160526703326 0 0 0
17704 2 21.82277904732931 8.999565314700838 4.663301863299688 0 0 0
6705 1 26.499095237110435 9.89952868563961 3.104414544739744 0 0 0
17696 2 24.940333736334647 8.99956632017671 4.663327204957248 0 0 0
17694 2 28.05788801139604 8.999562930877236 4.663296970964796 0 0 0
17693 2 1.558770091854546 11.699438694207133 4.663253799297401 0 0 0
6887 1 3.1175408995550806 12.599395308401485 3.104347094272096 0 0 0
17692 2 4.67631172830757 11.699438465017238 4.663253463335157 0 0 0
6810 1 6.235082542137132 12.599395235220836 3.104347072027588 0 0 0
17691 2 7.79385329600399 11.699438337259583 4.663253689444592 0 0 0
6909 1 9.352624070056459 12.599395232980447 3.1043473262621406 0 0 0
6911 1 12.470165409811282 12.599395417915133 3.1043435118162743 0 0 0
17690 2 10.911396379869432 11.699439219186878 4.6632529767383755 0 0 0
6913 1 15.587707751243974 12.599396377101582 3.104338854476101 0 0 0
17689 2 14.028938399770547 11.699439436781235 4.663246606039809 0 0 0
17688 2 17.14646841635636 11.699433363294682 4.6632507856629974 0 0 0
6917 1 18.705253089387604 12.599396449907525 3.1043627361931296 0 0 0
17669 2 20.26400404152508 11.699434048021557 4.663288967611286 0 0 0
6925 1 21.82279274461808 12.5993956267848 3.1044132433326546 0 0 0
17695 2 23.381550200565233 11.699427998780903 4.663331065475959 0 0 0
6919 1 24.940333220814317 12.599478683051599 3.1044719289542493 0 0 0
17668 2 26.49911651061289 11.699427566578501 4.6633308841118755 0 0 0
6920 1 28.057873832280073 12.599395752006103 3.1044133744359756 0 0 0
6921 1 1.5587699713643588 15.299265705610818 3.104347062008914 0 0 0
6922 1 4.676311664252146 15.299265639836015 3.104347005256811 0 0 0
17657 2 3.117540832481699 14.39930887760554 4.663253444776639 0 0 0
6924 1 7.793853267948489 15.299265650260608 3.1043472955265217 0 0 0
17645 2 6.235082423037363 14.39930876908077 4.663253542107282 0 0 0
17644 2 9.35262457625682 14.39930884583704 4.663253556033203 0 0 0
6907 1 10.911394727423108 15.299265670944399 3.104345863065474 0 0 0
17643 2 12.470168162311959 14.399309684377961 4.663249222379904 0 0 0
6905 1 14.028936988024748 15.299265913842357 3.104339956846285 0 0 0
17642 2 15.587703798177854 14.39930729125661 4.663248435441411 0 0 0
6891 1 17.146482427647925 15.299265913908352 3.104350227045267 0 0 0
6892 1 20.264030604619865 15.299270185673311 3.104388681456531 0 0 0
17641 2 18.705238036924754 14.399309698326418 4.6632728119926465 0 0 0
6893 1 23.381637280224194 15.299222274402522 3.1044739344479337 0 0 0
17640 2 21.822762991133544 14.399310472383613 4.663321799759088 0 0 0
6895 1 26.499029376792155 15.29922229178813 3.1044740237307575 0 0 0
17639 2 28.057903742633304 14.399310597366705 4.663322023863794 0 0 0
17638 2 1.5587699259608911 17.099179268504766 4.663253431971911 0 0 0
6900 1 3.117540795479542 17.999136035377884 3.104346990267519 0 0 0
17637 2 4.67631164771878 17.099179227005422 4.663253430327165 0 0 0
6902 1 6.235082486114965 17.999136048028014 3.104347063816608 0 0 0
17636 2 7.79385320062479 17.099179207114208 4.6632537022666325 0 0 0
6903 1 9.352623883777833 17.99913613162202 3.1043472730835484 0 0 0
6916 1 12.470165035923282 17.999136310390963 3.1043445494739186 0 0 0
17635 2 10.911395631764567 17.099179075311902 4.663252687897493 0 0 0
6926 1 15.58770722819358 17.999136447845796 3.10434002947887 0 0 0
17634 2 14.028937790306784 17.099178730593913 4.66324718204392 0 0 0
17633 2 17.14647046408126 17.099182600028865 4.663254733661384 0 0 0
6949 1 18.705250750167025 17.99913562376917 3.104356377188109 0 0 0
17632 2 20.264003870210523 17.09918749450973 4.663287212620567 0 0 0
6951 1 21.822792939413088 17.999125436886988 3.10439265155028 0 0 0
17646 2 23.381546216912888 17.099199931435763 4.663326693060185 0 0 0
6953 1 24.940333347699877 17.99913457558035 3.1044194839123476 0 0 0
17647 2 26.499120473597475 17.09919995947315 4.663326699938796 0 0 0
6954 1 28.057873758838337 17.99912543993077 3.1043926448013592 0 0 0
6955 1 1.558769904795076 20.699006428503647 3.104346997881904 0 0 0
6957 1 4.676311681313757 20.69900643076216 3.104346991180729 0 0 0
17648 2 3.117540798694271 19.799049627400585 4.6632534236003735 0 0 0
6958 1 7.793853361606747 20.69900647569907 3.1043470995088898 0 0 0
17649 2 6.235082521567558 19.79904964293683 4.6632534479024335 0 0 0
17665 2 9.352624057318234 19.799049656699015 4.66325379772795 0 0 0
6961 1 10.911394702051236 20.699006672833864 3.104347405710573 0 0 0
17664 2 12.470166630417696 19.799049086339362 4.663252364437479 0 0 0
6963 1 14.028935835011088 20.699007160993663 3.104344358217526 0 0 0
17663 2 15.58770811570083 19.79904969844509 4.663246980119629 0 0 0
6948 1 17.146478317121087 20.69900688507146 3.104339815684014 0 0 0
6956 1 20.26402263571101 20.699003282768377 3.104351595141228 0 0 0
17662 2 18.705242430986477 19.799055405534887 4.663254869281559 0 0 0
6947 1 23.38156285076747 20.699003051311525 3.104370221870722 0 0 0
17661 2 21.822782782856205 19.799058801778433 4.663277630451581 0 0 0
6929 1 26.499103848985552 20.699003051346565 3.1043702217040328 0 0 0
17660 2 24.940333349538317 19.799067749919125 4.663293579253131 0 0 0
17659 2 28.05788391672955 19.79905880118001 4.6632776275741925 0 0 0
17666 2 1.5587699033791844 22.49892002544863 4.663253427060665 0 0 0
6934 1 3.117540798616179 23.39887682356686 3.1043469998559736 0 0 0
17658 2 4.676311694407458 22.49892002588323 4.663253421770372 0 0 0
6937 1 6.235082577005094 23.398876831267007 3.1043469891512996 0 0 0
17656 2 7.793853409257697 22.49892005978099 4.663253463308454 0 0 0
6945 1 9.35262426514286 23.398876892501793 3.1043471363167248 0 0 0
6939 1 12.470165682647547 23.398877202223378 3.104347408537433 0 0 0
17655 2 10.911395047241772 22.498920161371803 4.663253880172198 0 0 0
6941 1 15.587707255827928 23.39887765109999 3.1043444804255693 0 0 0
17654 2 14.028937809225233 22.49891991853988 4.663252354661585 0 0 0
17653 2 17.146479935447097 22.498919709392553 4.663246907254859 0 0 0
6944 1 18.70524995950772 23.39887666168346 3.104339668432096 0 0 0
17652 2 20.264019503965585 22.498924661949587 4.663249209453901 0 0 0
6889 1 21.822791520522777 23.398876235490654 3.104341355830819 0 0 0
17651 2 23.38156076154007 22.49893242157749 4.663257328769638 0 0 0
6888 1 24.94033334998969 23.39887570380122 3.1043440343465774 0 0 0
17650 2 26.499105938464467 22.49893242158217 4.663257328825617 0 0 0
6867 1 28.057875179453365 23.39887623550147 3.104341355859123 0 0 0
6830 1 1.5587699031296613 26.09874722325298 3.1043470000335116 0 0 0
6831 1 4.676311694848103 26.098747223934694 3.1043469998018387 0 0 0
17667 2 3.1175407995017097 25.198790424354723 4.663253427934562 0 0 0
6833 1 7.793853473839838 26.098747232415665 3.1043469891406716 0 0 0
17705 2 6.235082590743708 25.198790425289953 4.663253421524559 0 0 0
17706 2 9.352624315278366 25.198790475878738 4.663253463918678 0 0 0
6836 1 10.911395174387156 26.098747307623483 3.1043470995676046 0 0 0
17707 2 12.470165988554191 25.1987906928608 4.663253800598044 0 0 0
6846 1 14.028936745560841 26.098747597960333 3.104347281844872 0 0 0
17761 2 15.58770834703666 25.19879017939235 4.663252667439062 0 0 0
6840 1 17.146478677553645 26.09874762954817 3.1043457632327245 0 0 0
6841 1 20.264020681346405 26.09874755225111 3.104343100557684 0 0 0
17760 2 18.705250339881175 25.198788246380094 4.663248846504872 0 0 0
6842 1 23.381562489194405 26.098747252038883 3.1043426556264913 0 0 0
17759 2 21.822790868805328 25.19878935202347 4.6632476711764035 0 0 0
6844 1 26.49910421079148 26.098747252039125 3.1043426556261555 0 0 0
17758 2 24.94033334999247 25.198790876087877 4.6632482915084905 0 0 0
17757 2 28.05787583117902 25.198789352025937 4.663247671174316 0 0 0
17756 2 1.5587699031763687 27.898660823850946 4.663253426951073 0 0 0
17762 2 26.49910441059441 27.898659037120606 4.663252349594155 0 0 0
17755 2 4.676311695960794 27.898660823944745 4.6632534272415915 0 0 0
17752 2 23.381562289391688 27.898659037120577 4.6632523495941465 0 0 0
17754 2 7.793853487184617 27.89866082479131 4.663253421727581 0 0 0
17751 2 20.264020756843877 27.898659341092404 4.663252522043849 0 0 0
17749 2 17.14647902572577 27.89866061354001 4.663253518811278 0 0 0
17750 2 10.911395231158751 27.89866087652489 4.663253446895985 0 0 0
17748 2 14.028936948348015 27.898661081848587 4.663253707281855 0 0 0
21369 3 1.096979461800814e-06 8.999569492608291 1.5454393938394981 1 0 0
7301 1 2.332491300520846e-07 7.199655129183566 3.1043443392438372 1 0 0
21431 3 1.953449315491166e-06 3.5998281997998656 1.5454341671134681 1 0 0
21246 3 3.11754079963614 30.598531223429337 1.545440572357398 0 0 0
21245 3 6.235082592356486 30.598531223562144 1.5454405725357434 0 0 0
21262 3 9.352624382883766 30.598531227227753 1.5454405687562192 0 0 0
21264 3 12.470166172744355 30.59853124037045 1.5454405721447102 0 0 0
21283 3 15.587707942594502 30.59853123500301 1.545440685106243 0 0 0
21265 3 18.705249691323175 30.598531290522253 1.5454407925500355 0 0 0
21282 3 21.822791570311885 30.598531366847784 1.5454408361127998 0 0 0
21281 3 24.94033334999304 30.59853133071709 1.545440927747077 0 0 0
21280 3 28.057875129674194 30.598531366847784 1.5454408361128036 0 0 0
21279 3 1.5587699031860833 33.29840162302746 1.545440573044385 0 0 0
20964 3 4.676311696090901 33.29840162303122 1.5454405730411116 0 0 0
20963 3 7.793853488874169 33.29840162316321 1.54544057313644 0 0 0
20962 3 10.911395280539727 33.298401626073954 1.5454405715639694 0 0 0
20969 3 14.028937073469585 33.29840163307487 1.5454405676725804 0 0 0
20961 3 17.146478869092075 33.298401619995865 1.545440577360031 0 0 0
20959 3 20.264020662876845 33.298401599800705 1.5454405889661162 0 0 0
20958 3 23.381562457581694 33.2984015841873 1.5454406033508201 0 0 0
20957 3 26.499104242404407 33.2984015841873 1.5454406033508166 0 0 0
20956 3 3.1175407996399866 35.99827202261094 1.5454405723622429 0 0 0
20955 3 6.23508259254557 35.99827202261507 1.5454405723606874 0 0 0
20954 3 9.352624385385642 35.998272022727484 1.545440572391418 0 0 0
20953 3 12.470166177928363 35.998272023862796 1.545440572075237 0 0 0
20960 3 15.587707971257476 35.998272024910115 1.5454405711721855 0 0 0
20970 3 18.70524976447224 35.99827202557409 1.5454405694538729 0 0 0
20971 3 21.822791557278208 35.998272026872414 1.5454405672181766 0 0 0
20972 3 24.940333349992997 35.99827202739392 1.5454405664831983 0 0 0
20989 3 28.05787514270781 35.998272026872264 1.5454405672182012 0 0 0
20988 3 1.5587699031861593 38.69814242221236 1.5454405730443643 0 0 0
20987 3 4.6763116960938484 38.698142422212385 1.5454405730443928 0 0 0
20986 3 7.793853489000066 38.69814242221584 1.5454405730438885 0 0 0
20985 3 10.9113952818868 38.69814242225784 1.545440573048299 0 0 0
20984 3 14.028937074791695 38.69814242229081 1.5454405730795866 0 0 0
20983 3 17.14647886770423 38.69814242229081 1.545440573143313 0 0 0
20982 3 20.26402066059306 38.698142422325006 1.5454405732138135 0 0 0
20981 3 23.38156245351918 38.69814242235466 1.5454405732740246 0 0 0
20980 3 26.49910424646252 38.69814242235414 1.5454405732722971 0 0 0
20979 3 3.117540799638218 41.398012821791355 1.5454405723589626 0 0 0
20978 3 6.235082592546576 41.398012821790765 1.545440572357385 0 0 0
20977 3 9.35262438545484 41.398012821791724 1.5454405723566955 0 0 0
20976 3 12.47016617836377 41.39801282179307 1.5454405723571665 0 0 0
20975 3 15.587707971270897 41.39801282179202 1.5454405723578797 0 0 0
20974 3 18.705249764152576 41.39801282175217 1.545440572362336 0 0 0
20973 3 21.82279155702188 41.39801282167695 1.5454405723874363 0 0 0
21012 3 24.94033334994001 41.39801282161916 1.545440572450357 0 0 0
21033 3 28.057875142877993 41.39801282156492 1.5454405725322826 0 0 0
21034 3 1.558769903132368 44.09788322121928 1.5454405731364271 0 0 0
21035 3 4.6763116960714575 44.09788322116374 1.5454405732178829 0 0 0
21094 3 7.793853488997436 44.097883221111445 1.5454405732842376 0 0 0
21093 3 10.911395281913201 44.09788322111142 1.5454405732842618 0 0 0
21092 3 14.028937074837122 44.09788322116322 1.5454405732170498 0 0 0
21091 3 17.14647886772261 44.09788322115848 1.5454405731716292 0 0 0
21090 3 20.264020659831235 44.097883220276984 1.5454405727866376 0 0 0
21089 3 23.381562451614545 44.097883218647276 1.5454405715679915 0 0 0
21088 3 26.49910424444338 44.09788321727073 1.5454405694385893 0 0 0
21087 3 3.117540797634089 46.797753616853164 1.5454405687565442 0 0 0
21086 3 6.235082591523534 46.79775361583653 1.5454405662514985 0 0 0
21085 3 9.352624385455263 46.79775361513822 1.5454405652529428 0 0 0
21084 3 12.470166179384911 46.79775361583553 1.5454405662492507 0 0 0
21083 3 15.58770797321717 46.79775361679674 1.5454405688556074 0 0 0
21082 3 18.70524976414763 46.79775361711008 1.5454405696917906 0 0 0
21081 3 21.822791549929246 46.797753613792366 1.545440566704153 0 0 0
21080 3 24.940333338194073 46.79775360759531 1.5454405721830664 0 0 0
21079 3 28.057875135056257 46.797753616143275 1.5454405839446401 0 0 0
21078 3 1.5587698913172119 49.49762400722998 1.545440572822618 0 0 0
21095 3 4.676311688238595 49.49762401571213 1.5454405846153503 0 0 0
21097 3 7.7938534909912836 49.497624025135025 1.5454405981871957 0 0 0
21116 3 10.911395279916833 49.49762402513382 1.5454405981836807 0 0 0
21098 3 14.028937082589982 49.497624015622705 1.545440584785316 0 0 0
21115 3 17.14647887688177 49.4976240060039 1.5454405699144675 0 0 0
21114 3 20.26402067061273 49.49762401708173 1.545440571985724 0 0 0
21113 3 23.38156245987275 49.49762398883559 1.5454406846022994 0 0 0
21112 3 26.499104147506838 49.497623862681 1.5454408099327834 0 0 0
21111 3 3.1175407005341853 52.19749426211931 1.5454408091326015 0 0 0
21110 3 6.235082540047909 52.19749420382713 1.54544088913925 0 0 0
21109 3 9.352624385453138 52.197494162686674 1.5454409646415121 0 0 0
21108 3 12.470166230744706 52.197494203738756 1.5454408893703824 0 0 0
21107 3 15.587708066590249 52.1974942601552 1.5454408039885954 0 0 0
21106 3 18.70524977893446 52.197494403004086 1.545440701002473 0 0 0
21105 3 21.822791533504255 52.197494326210695 1.5454407968562984 0 0 0
21104 3 24.9403327294801 52.19749367274235 1.5454406415733946 0 0 0
21103 3 28.057874186673384 52.19749260731234 1.5454397265278874 0 0 0
21102 3 1.5587692794729735 54.89736407293214 1.5454406452461555 0 0 0
21101 3 4.676310739230094 54.89736300592882 1.5454397272969735 0 0 0
21100 3 7.793853262720922 54.89736228021916 1.5454393981125347 0 0 0
21099 3 10.911395508051939 54.89736228016271 1.5454393983472032 0 0 0
21077 3 14.028938027537361 54.89736300353674 1.5454397214176991 0 0 0
21096 3 17.14647952305327 54.897364095850165 1.54544067555166 0 0 0
21076 3 20.264020551618593 54.89736466273776 1.5454410569768737 0 0 0
21054 3 23.381560627391956 54.89736366947243 1.5454396451185348 0 0 0
21052 3 26.49910204510972 54.8973627851004 1.5454360718284497 0 0 0
18176 2 3.117540799631099 30.59853122343203 4.663253427634391 0 0 0
18175 2 6.235082592450022 30.598531223543656 4.663253427854252 0 0 0
18190 2 9.352624384006077 30.59853122485732 4.66325342465107 0 0 0
18191 2 12.470166153519259 30.598531266455563 4.663253433709914 0 0 0
18192 2 15.58770793744094 30.598531399552442 4.663253553434426 0 0 0
18193 2 18.705249814953195 30.5985313854821 4.663253659979733 0 0 0
18209 2 21.822791572417582 30.59853127446781 4.663253703807371 0 0 0
18208 2 24.94033334999304 30.59853130940376 4.663253799288306 0 0 0
18207 2 28.057875127568504 30.598531274467824 4.663253703807361 0 0 0
6453 1 1.5587699031844746 31.4984880223868 3.104346999999333 0 0 0
18206 2 1.5587699031861477 33.298401623027424 4.66325342695569 0 0 0
6475 1 4.676311696043731 31.498488022421324 3.104347000021144 0 0 0
18205 2 4.67631169608746 33.29840162303292 4.66325342695362 0 0 0
6477 1 7.793853488125396 31.498488023123812 3.1043469999557565 0 0 0
18204 2 7.793853488934129 33.29840162316598 4.663253427073617 0 0 0
6479 1 10.911395273709507 31.49848803185539 3.1043469951200673 0 0 0
18203 2 10.911395280883069 33.29840162482636 4.663253425908387 0 0 0
6481 1 14.028937049552527 31.498488057961612 3.1043470143052345 0 0 0
18210 2 14.028937066784298 33.298401638879795 4.663253423883571 0 0 0
6483 1 17.146478848628455 31.498488069065896 3.104347093757096 0 0 0
18202 2 17.146478861655535 33.298401661312084 4.663253432332417 0 0 0
6484 1 20.264020664091078 31.498488067052033 3.1043471497737603 0 0 0
18200 2 20.26402066056814 33.29840167837229 4.663253443296516 0 0 0
6486 1 23.381562458696415 31.498488075562424 3.104347218753551 0 0 0
18199 2 23.38156244982379 33.29840170202216 4.66325346003101 0 0 0
6487 1 26.49910424128969 31.498488075562424 3.104347218753551 0 0 0
18198 2 26.49910425016234 33.29840170202214 4.6632534600310205 0 0 0
6488 1 3.117540799638594 34.19835842105668 3.104346999999561 0 0 0
18197 2 3.11754079964003 35.998272022610905 4.663253427637796 0 0 0
6490 1 6.235082592510214 34.19835842108932 3.104347000011011 0 0 0
18196 2 6.235082592543793 35.9982720226159 4.663253427636863 0 0 0
6482 1 9.3526243849257 34.19835842170928 3.104347000007192 0 0 0
18195 2 9.352624385409257 35.99827202273215 4.66325342768251 0 0 0
6462 1 12.470166175677633 34.198358425150474 3.1043469979275793 0 0 0
18194 2 12.470166178018752 35.99827202337636 4.663253427526252 0 0 0
6455 1 15.587707968714797 34.19835842688664 3.1043469948826505 0 0 0
18097 2 15.587707970851202 35.99827202335155 4.663253426464282 0 0 0
6457 1 18.70524976405039 34.19835842667317 3.1043469920982267 0 0 0
18172 2 18.705249764022977 35.99827202245971 4.663253424646155 0 0 0
6459 1 21.822791557064523 34.19835842846541 3.1043469894078646 0 0 0
18096 2 21.82279155662877 35.99827202204965 4.663253422601953 0 0 0
6461 1 24.940333349993033 34.198358429644756 3.1043469904585668 0 0 0
18017 2 24.940333349992997 35.9982720222459 4.663253421901141 0 0 0
6463 1 28.05787514292157 34.1983584284654 3.1043469894078726 0 0 0
17995 2 28.057875143357197 35.9982720220496 4.663253422602002 0 0 0
6465 1 1.5587699031862974 36.89822882157064 3.1043470000000095 0 0 0
17994 2 1.558769903186164 38.6981424222124 4.663253426955679 0 0 0
6467 1 4.676311696092892 36.898228821571585 3.104346999999794 0 0 0
17993 2 4.676311696093862 38.69814242221246 4.663253426955693 0 0 0
6469 1 7.79385348898034 36.89822882159872 3.1043470000036395 0 0 0
17992 2 7.793853488999463 38.69814242221619 4.663253426955484 0 0 0