LAMMPS data file via write_data, version 2 Aug 2023, timestep = 2251, units = metal

28320 atoms
3 atom types

0 935.2612858615304 xlo xhi
0 86.39577561875795 ylo yhi
0 50 zlo zhi
0 0 0 xy xz yz

Masses

1 95.94
2 32.065
3 32.065

Atoms # atomic

1 3 1.558767982048313 0.8999559897443024 1.5454396131640864 0 0 0
2 3 4.6763056015865345 0.899955989744185 1.5454396131639918 0 0 0
3 3 7.7938432211251785 0.8999559897443272 1.5454396131648576 0 0 0
4 3 10.911380840664211 0.8999559897443358 1.5454396131646895 0 0 0
5 3 14.028918460202094 0.8999559897446655 1.5454396131645651 0 0 0
6 3 17.146456079739973 0.899955989744648 1.545439613164561 0 0 0
7 3 20.26399369927852 0.8999559897445227 1.5454396131646553 0 0 0
8 3 23.381531318816947 0.8999559897445242 1.5454396131645898 0 0 0
9 3 26.499068938355222 0.8999559897444572 1.5454396131646253 0 0 0
10 3 3.117536791818511 3.59982397783031 1.5454396131641772 0 0 0
11 3 6.235074411355623 3.5998239778307894 1.545439613164775 0 0 0
12 3 9.352612030894711 3.599823977830959 1.5454396131647172 0 0 0
13 3 12.470149650432827 3.599823977830798 1.5454396131645503 0 0 0
14 3 15.587687269970862 3.5998239778309897 1.5454396131646406 0 0 0
15 3 18.705224889509203 3.5998239778307846 1.5454396131646115 0 0 0
16 3 21.822762509047806 3.5998239778308365 1.545439613164614 0 0 0
17 3 24.940300128586053 3.5998239778308596 1.5454396131646153 0 0 0
18 3 28.05783774812434 3.5998239778308365 1.5454396131645844 0 0 0
19 3 1.5587679820498646 6.29969196591644 1.5454396131634978 0 0 0
20 3 4.676305601586724 6.299691965917439 1.5454396131645558 0 0 0
21 3 7.793843221125193 6.299691965917317 1.545439613164596 0 0 0
22 3 10.911380840663817 6.299691965917072 1.5454396131645871 0 0 0
23 3 14.02891846020207 6.299691965917108 1.545439613164653 0 0 0
24 3 17.146456079740087 6.299691965917072 1.545439613164588 0 0 0
25 3 20.26399369927849 6.2996919659169714 1.545439613164574 0 0 0
26 3 23.381531318816954 6.299691965917016 1.5454396131645887 0 0 0
27 3 26.499068938355187 6.299691965917033 1.5454396131645793 0 0 0
28 3 3.117536791817593 8.999559954003532 1.5454396131644457 0 0 0
29 3 6.2350744113558365 8.999559954004074 1.5454396131646266 0 0 0
30 3 9.35261203089484 8.999559954003267 1.5454396131645942 0 0 0
31 3 12.470149650432894 8.999559954003086 1.545439613164599 0 0 0
32 3 15.587687269970768 8.999559954003207 1.545439613164554 0 0 0
33 3 18.705224889509182 8.999559954003104 1.5454396131645947 0 0 0
34 3 21.822762509047788 8.999559954003056 1.5454396131646018 0 0 0
35 3 24.940300128586127 8.999559954003034 1.5454396131646022 0 0 0
36 3 28.05783774812441 8.999559954003045 1.54543961316468 0 0 0
37 3 1.5587679820483118 11.699427942089079 1.5454396131639803 0 0 0
38 3 4.676305601585804 11.69942794208957 1.5454396131643493 0 0 0
39 3 7.793843221124714 11.699427942089644 1.5454396131646002 0 0 0
40 3 10.911380840663817 11.699427942089503 1.5454396131647195 0 0 0
41 3 14.028918460201961 11.6994279420893 1.5454396131645831 0 0 0
42 3 17.14645607973991 11.699427942089194 1.5454396131646007 0 0 0
43 3 20.263993699278444 11.699427942089091 1.5454396131646226 0 0 0
44 3 23.381531318816954 11.699427942089219 1.5454396131646226 0 0 0
45 3 26.499068938355222 11.699427942089171 1.5454396131646324 0 0 0
46 3 3.1175367918167476 14.399295930175288 1.545439613164512 0 0 0
47 3 6.235074411355948 14.399295930175768 1.545439613164625 0 0 0
48 3 9.35261203089458 14.399295930175802 1.5454396131646368 0 0 0
49 3 12.470149650432413 14.3992959301755 1.5454396131646464 0 0 0
50 3 15.587687269970587 14.39929593017543 1.5454396131646373 0 0 0
51 3 18.705224889509257 14.399295930175308 1.5454396131646309 0 0 0
52 3 21.8227625090478 14.399295930175438 1.545439613164585 0 0 0
53 3 24.940300128585978 14.399295930175363 1.5454396131645942 0 0 0
54 3 28.057837748124374 14.399295930175446 1.5454396131646386 0 0 0
55 3 1.558767982048957 17.099163918261254 1.5454396131641954 0 0 0
56 3 4.676305601585835 17.09916391826175 1.5454396131642403 0 0 0
57 3 7.7938432211246464 17.099163918261997 1.5454396131646708 0 0 0
58 3 10.911380840663623 17.099163918261674 1.5454396131645964 0 0 0
59 3 14.028918460201647 17.099163918261638 1.5454396131646078 0 0 0
60 3 17.146456079739984 17.09916391826169 1.5454396131646086 0 0 0
61 3 20.263993699278554 17.099163918261706 1.5454396131646142 0 0 0
62 3 23.38153131881699 17.09916391826166 1.5454396131646553 0 0 0
63 3 26.499068938355222 17.099163918261585 1.545439613164615 0 0 0
64 3 3.1175367918175616 19.79903190634875 1.5454396131640706 0 0 0
65 3 6.235074411356116 19.799031906347672 1.5454396131645682 0 0 0
66 3 9.352612030894338 19.79903190634772 1.54543961316453 0 0 0
67 3 12.470149650432356 19.79903190634762 1.5454396131646226 0 0 0
68 3 15.587687269970706 19.799031906347913 1.5454396131646122 0 0 0
69 3 18.705224889509275 19.7990319063479 1.5454396131646286 0 0 0
70 3 21.822762509047788 19.79903190634783 1.545439613164581 0 0 0
71 3 24.940300128586088 19.799031906347825 1.5454396131646078 0 0 0
72 3 28.05783774812434 19.79903190634783 1.545439613164659 0 0 0
73 3 1.5587679820479865 22.49889989443501 1.5454396131646182 0 0 0
74 3 4.676305601585527 22.49889989443389 1.5454396131640893 0 0 0
75 3 7.793843221124513 22.49889989443397 1.5454396131647397 0 0 0
76 3 10.911380840664096 22.498899894433738 1.5454396131646486 0 0 0
77 3 14.028918460201929 22.498899894434025 1.5454396131645805 0 0 0
78 3 17.14645607974006 22.498899894434143 1.5454396131646386 0 0 0
79 3 20.263993699278522 22.498899894433986 1.5454396131645998 0 0 0
80 3 23.381531318816954 22.498899894434047 1.5454396131646184 0 0 0
81 3 26.499068938355148 22.498899894434075 1.5454396131646064 0 0 0
82 3 3.117536791818498 25.19876788251996 1.5454396131642465 0 0 0
83 3 6.235074411355896 25.198767882519828 1.5454396131645316 0 0 0
84 3 9.352612030894505 25.198767882520062 1.5454396131644845 0 0 0
85 3 12.470149650432463 25.198767882520173 1.5454396131646027 0 0 0
86 3 15.587687269970811 25.19876788252035 1.5454396131646229 0 0 0
87 3 18.705224889509257 25.198767882520283 1.5454396131646428 0 0 0
88 3 21.822762509047823 25.198767882520226 1.5454396131645831 0 0 0
89 3 24.940300128586053 25.19876788252016 1.5454396131646406 0 0 0
90 3 28.057837748124363 25.198767882520226 1.54543961316465 0 0 0
91 3 1.5587679820477962 27.898635870606455 1.5454396131641954 0 0 0
92 3 4.676305601585018 27.89863587060648 1.545439613164306 0 0 0
93 3 7.793843221124765 27.898635870606544 1.5454396131647787 0 0 0
94 3 10.911380840664398 27.89863587060625 1.5454396131646098 0 0 0
95 3 14.028918460202092 27.89863587060659 1.5454396131646002 0 0 0
96 3 17.146456079740023 27.898635870606544 1.5454396131646257 0 0 0
97 3 20.263993699278554 27.89863587060651 1.5454396131646189 0 0 0
98 3 23.38153131881691 27.898635870606416 1.5454396131645838 0 0 0
99 3 26.499068938355165 27.898635870606412 1.5454396131646058 0 0 0
100 2 1.558767982048623 0.8999559897447247 4.663253720169772 0 0 0
101 2 4.676305601586226 0.8999559897440156 4.6632537201688145 0 0 0
102 1 3.117536791817356 1.7999120873983268 3.104346666666498 0 0 0
103 2 7.793843221125131 0.8999559897443771 4.663253720168644 0 0 0
104 1 6.235074411355316 1.799912087398193 3.104346666666622 0 0 0
105 1 9.352612030894749 1.799912087398575 3.1043466666667108 0 0 0
106 2 10.911380840664304 0.8999559897444698 4.663253720168768 0 0 0
107 1 12.470149650433125 1.7999120873987018 3.1043466666666535 0 0 0
108 2 14.028918460202055 0.899955989744665 4.663253720168826 0 0 0
109 1 15.587687269971 1.7999120873988474 3.104346666666675 0 0 0
110 2 17.146456079739938 0.8999559897446205 4.663253720168793 0 0 0
111 2 20.263993699278487 0.8999559897445795 4.663253720168719 0 0 0
112 1 18.70522488950932 1.799912087398604 3.1043466666666966 0 0 0
113 2 23.381531318816947 0.8999559897444853 4.663253720168833 0 0 0
114 1 21.822762509047788 1.7999120873986616 3.1043466666666744 0 0 0
115 2 26.499068938355126 0.8999559897445624 4.66325372016876 0 0 0
116 1 24.940300128586053 1.7999120873986534 3.1043466666666815 0 0 0
117 1 28.057837748124403 1.7999120873985968 3.1043466666666806 0 0 0
118 1 1.5587679820506157 4.499780075484771 3.1043466666666335 0 0 0
119 1 4.6763056015866775 4.499780075485271 3.1043466666666886 0 0 0
120 2 3.1175367918182078 3.599823977829988 4.6632537201689015 0 0 0
121 1 7.793843221125118 4.499780075484931 3.1043466666667268 0 0 0
122 2 6.235074411355547 3.599823977830724 4.663253720168673 0 0 0
123 2 9.352612030894766 3.5998239778309795 4.6632537201686866 0 0 0
124 1 10.911380840663892 4.499780075485003 3.104346666666679 0 0 0
125 2 12.470149650432788 3.5998239778307672 4.663253720168814 0 0 0
126 1 14.028918460201776 4.499780075485 3.1043466666667126 0 0 0
127 2 15.58768726997082 3.5998239778309746 4.663253720168808 0 0 0
128 1 17.14645607974005 4.499780075484935 3.1043466666666926 0 0 0
129 1 20.26399369927853 4.499780075484885 3.1043466666666895 0 0 0
130 2 18.705224889509203 3.5998239778308463 4.663253720168751 0 0 0
131 1 23.38153131881708 4.499780075484935 3.1043466666667134 0 0 0
132 2 21.822762509047806 3.599823977830774 4.663253720168785 0 0 0
133 1 26.49906893835533 4.499780075484939 3.1043466666666926 0 0 0
134 2 24.940300128586053 3.599823977830894 4.6632537201687825 0 0 0
135 2 28.057837748124363 3.599823977830829 4.663253720168748 0 0 0
136 2 1.5587679820492806 6.299691965916457 4.663253720169211 0 0 0
137 2 4.676305601586641 6.2996919659174315 4.663253720168866 0 0 0
138 1 3.117536791817562 7.199648063571554 3.1043466666664905 0 0 0
139 2 7.793843221125248 6.299691965917365 4.66325372016873 0 0 0
140 1 6.235074411355803 7.199648063571663 3.104346666666697 0 0 0
141 1 9.352612030894587 7.199648063571071 3.1043466666666273 0 0 0
142 2 10.91138084066378 6.29969196591704 4.66325372016874 0 0 0
143 1 12.470149650432932 7.199648063571108 3.104346666666701 0 0 0
144 2 14.028918460202075 6.299691965917053 4.6632537201687425 0 0 0
145 1 15.58768726997104 7.199648063571197 3.1043466666666832 0 0 0
146 2 17.14645607974005 6.299691965917081 4.663253720168764 0 0 0
147 2 20.26399369927853 6.299691965917012 4.663253720168736 0 0 0
148 1 18.705224889509182 7.199648063571012 3.1043466666666637 0 0 0
149 2 23.381531318816947 6.299691965917029 4.663253720168815 0 0 0
150 1 21.822762509047752 7.199648063570947 3.1043466666666575 0 0 0
151 2 26.499068938355222 6.299691965917 4.663253720168802 0 0 0
152 1 24.940300128586053 7.199648063571079 3.1043466666666824 0 0 0
153 1 28.057837748124438 7.199648063571016 3.1043466666667086 0 0 0
154 1 1.5587679820478584 9.899516051656743 3.104346666666747 0 0 0
155 1 4.676305601586452 9.899516051657953 3.1043466666666837 0 0 0
156 2 3.1175367918173658 8.99955995400353 4.663253720168547 0 0 0
157 1 7.79384322112544 9.899516051657487 3.104346666666604 0 0 0
158 2 6.235074411356024 8.999559954004061 4.663253720168781 0 0 0
159 2 9.352612030894766 8.999559954003242 4.663253720168659 0 0 0
160 1 10.911380840663947 9.89951605165732 3.1043466666666966 0 0 0
161 2 12.470149650432917 8.999559954003082 4.663253720168822 0 0 0
162 1 14.028918460201853 9.899516051657265 3.1043466666666917 0 0 0
163 2 15.58768726997083 8.999559954003196 4.663253720168783 0 0 0
164 1 17.146456079739988 9.89951605165709 3.104346666666659 0 0 0
165 1 20.26399369927856 9.899516051657015 3.104346666666689 0 0 0
166 2 18.705224889509164 8.999559954003066 4.663253720168733 0 0 0
167 1 23.381531318816897 9.899516051657073 3.10434666666669 0 0 0
168 2 21.82276250904775 8.999559954003034 4.663253720168735 0 0 0
169 1 26.499068938355297 9.899516051657063 3.1043466666667032 0 0 0
170 2 24.940300128586088 8.999559954003058 4.663253720168819 0 0 0
171 2 28.057837748124378 8.99955995400303 4.663253720168745 0 0 0
172 2 1.5587679820478553 11.699427942088839 4.6632537201688296 0 0 0
173 2 4.6763056015860665 11.699427942089667 4.663253720169227 0 0 0
174 1 3.1175367918166588 12.59938403974372 3.104346666666779 0 0 0
175 2 7.79384322112463 11.699427942089661 4.663253720168576 0 0 0
176 1 6.235074411354937 12.599384039743386 3.1043466666665527 0 0 0
177 1 9.352612030894214 12.599384039743615 3.104346666666695 0 0 0
178 2 10.91138084066385 11.69942794208947 4.66325372016872 0 0 0
179 1 12.47014965043292 12.599384039743544 3.1043466666667205 0 0 0
180 2 14.028918460201982 11.69942794208929 4.663253720168802 0 0 0
181 1 15.587687269970894 12.599384039743404 3.1043466666667014 0 0 0
182 2 17.146456079739945 11.699427942089201 4.66325372016876 0 0 0
183 2 20.263993699278522 11.699427942089105 4.663253720168758 0 0 0
184 1 18.705224889509147 12.599384039743157 3.104346666666686 0 0 0
185 2 23.38153131881702 11.699427942089235 4.663253720168756 0 0 0
186 1 21.822762509047774 12.59938403974329 3.1043466666667006 0 0 0
187 2 26.499068938355222 11.699427942089171 4.663253720168779 0 0 0
188 1 24.940300128586017 12.59938403974329 3.1043466666666784 0 0 0
189 1 28.057837748124363 12.599384039743287 3.1043466666667126 0 0 0
190 1 1.558767982048221 15.299252027828793 3.1043466666667356 0 0 0
191 1 4.676305601586284 15.29925202782995 3.1043466666665624 0 0 0
192 2 3.1175367918169905 14.399295930175562 4.663253720168942 0 0 0
193 1 7.793843221125292 15.299252027829821 3.104346666666616 0 0 0
194 2 6.235074411355921 14.399295930175692 4.663253720168443 0 0 0
195 2 9.352612030894468 14.399295930175857 4.6632537201687345 0 0 0
196 1 10.91138084066359 15.29925202782978 3.104346666666739 0 0 0
197 2 12.470149650432413 14.399295930175485 4.663253720168864 0 0 0
198 1 14.028918460201458 15.299252027829533 3.104346666666712 0 0 0
199 2 15.587687269970662 14.399295930175452 4.663253720168772 0 0 0
200 1 17.146456079739938 15.299252027829493 3.1043466666666784 0 0 0
201 1 20.26399369927864 15.299252027829493 3.1043466666666775 0 0 0
202 2 18.705224889509257 14.399295930175343 4.663253720168747 0 0 0
203 1 23.38153131881701 15.29925202782952 3.1043466666666837 0 0 0
204 2 21.822762509047823 14.39929593017548 4.663253720168764 0 0 0
205 1 26.49906893835524 15.299252027829509 3.1043466666666966 0 0 0
206 2 24.940300128586017 14.399295930175446 4.66325372016877 0 0 0
207 2 28.057837748124374 14.399295930175418 4.66325372016873 0 0 0
208 2 1.5587679820493168 17.09916391826122 4.663253720169644 0 0 0
209 2 4.676305601585873 17.09916391826171 4.663253720168994 0 0 0
210 1 3.1175367918172765 17.999120015916947 3.1043466666666455 0 0 0
211 2 7.793843221124639 17.099163918261926 4.663253720168672 0 0 0
212 1 6.235074411354866 17.99912001591547 3.1043466666666273 0 0 0
213 1 9.35261203089419 17.99912001591576 3.1043466666666837 0 0 0
214 2 10.91138084066363 17.099163918261713 4.663253720168795 0 0 0
215 1 12.470149650432656 17.999120015915658 3.1043466666666815 0 0 0
216 2 14.028918460201654 17.099163918261585 4.663253720168781 0 0 0
217 1 15.587687269970816 17.999120015915736 3.1043466666666752 0 0 0
218 2 17.146456079739984 17.09916391826169 4.663253720168724 0 0 0
219 2 20.263993699278593 17.09916391826168 4.66325372016874 0 0 0
220 1 18.70522488950932 17.999120015915672 3.1043466666666704 0 0 0
221 2 23.381531318816954 17.099163918261638 4.663253720168741 0 0 0
222 1 21.822762509047823 17.99912001591571 3.1043466666666784 0 0 0
223 2 26.499068938355258 17.099163918261603 4.66325372016882 0 0 0
224 1 24.940300128586014 17.999120015915782 3.104346666666722 0 0 0
225 1 28.057837748124378 17.999120015915725 3.1043466666667037 0 0 0
226 1 1.5587679820478846 20.69898800400181 3.104346666666806 0 0 0
227 1 4.676305601586652 20.698988004002526 3.1043466666665886 0 0 0
228 2 3.1175367918176278 19.799031906348866 4.663253720168973 0 0 0
229 1 7.793843221125201 20.69898800400159 3.1043466666665913 0 0 0
230 2 6.235074411355983 19.79903190634772 4.663253720168623 0 0 0
231 2 9.352612030894317 19.799031906347768 4.663253720168756 0 0 0
232 1 10.911380840663425 20.698988004001652 3.104346666666687 0 0 0
233 2 12.470149650432337 19.79903190634759 4.663253720168755 0 0 0
234 1 14.028918460201464 20.698988004001926 3.104346666666702 0 0 0
235 2 15.58768726997072 19.799031906347913 4.663253720168756 0 0 0
236 1 17.14645607974005 20.69898800400194 3.104346666666693 0 0 0
237 1 20.263993699278632 20.69898800400195 3.104346666666683 0 0 0
238 2 18.705224889509285 19.799031906347885 4.663253720168731 0 0 0
239 1 23.38153131881705 20.69898800400195 3.1043466666666695 0 0 0
240 2 21.822762509047806 19.79903190634784 4.663253720168759 0 0 0
241 1 26.499068938355347 20.698988004001933 3.1043466666667188 0 0 0
242 2 24.940300128586053 19.799031906347825 4.663253720168786 0 0 0
243 2 28.057837748124374 19.79903190634783 4.663253720168779 0 0 0
244 2 1.5587679820487181 22.498899894434267 4.663253720169785 0 0 0
245 2 4.6763056015856925 22.498899894434118 4.663253720169304 0 0 0
246 1 3.1175367918171504 23.398855992088674 3.1043466666669066 0 0 0
247 2 7.793843221124527 22.49889989443379 4.663253720168487 0 0 0
248 1 6.235074411354572 23.398855992087523 3.1043466666665998 0 0 0
249 1 9.352612030894374 23.398855992087828 3.104346666666646 0 0 0
250 2 10.911380840664041 22.498899894433762 4.6632537201687425 0 0 0
251 1 12.470149650432957 23.39885599208817 3.1043466666666775 0 0 0
252 2 14.028918460201963 22.498899894434075 4.663253720168811 0 0 0
253 1 15.587687269970985 23.39885599208822 3.104346666666669 0 0 0
254 2 17.146456079739984 22.498899894434143 4.663253720168787 0 0 0
255 2 20.263993699278565 22.498899894434032 4.66325372016879 0 0 0
256 1 18.705224889509296 23.39885599208817 3.1043466666667117 0 0 0
257 2 23.381531318816986 22.498899894434047 4.663253720168715 0 0 0
258 1 21.822762509047806 23.398855992088087 3.1043466666666673 0 0 0
259 2 26.499068938355187 22.49889989443398 4.663253720168799 0 0 0
260 1 24.94030012858609 23.398855992088155 3.104346666666672 0 0 0
261 1 28.05783774812441 23.39885599208805 3.104346666666692 0 0 0
262 1 1.5587679820483484 26.09872398017364 3.1043466666668422 0 0 0
263 1 4.676305601586367 26.098723980174565 3.10434666666652 0 0 0
264 2 3.117536791817487 25.198767882520535 4.663253720169256 0 0 0
265 1 7.793843221125089 26.098723980174015 3.1043466666665926 0 0 0
266 2 6.235074411355618 25.198767882519817 4.663253720168477 0 0 0
267 2 9.352612030894468 25.198767882520116 4.663253720168715 0 0 0
268 1 10.911380840663586 26.09872398017426 3.1043466666666335 0 0 0
269 2 12.47014965043245 25.1987678825202 4.663253720168773 0 0 0
270 1 14.028918460201625 26.09872398017441 3.104346666666714 0 0 0
271 2 15.587687269970811 25.198767882520336 4.663253720168733 0 0 0
272 1 17.14645607974005 26.098723980174466 3.1043466666666912 0 0 0
273 1 20.26399369927864 26.098723980174412 3.1043466666666983 0 0 0
274 2 18.705224889509406 25.19876788252027 4.6632537201687745 0 0 0
275 1 23.38153131881699 26.098723980174384 3.104346666666703 0 0 0
276 2 21.822762509047806 25.198767882520247 4.663253720168783 0 0 0
277 1 26.499068938355204 26.098723980174324 3.1043466666666943 0 0 0
278 2 24.940300128586053 25.198767882520226 4.663253720168712 0 0 0
279 2 28.0578377481243 25.198767882520233 4.66325372016875 0 0 0
280 2 1.5587679820476543 27.898635870605368 4.663253720169171 0 0 0
281 2 4.676305601585159 27.898635870606043 4.6632537201689805 0 0 0
283 2 7.793843221124867 27.898635870606366 4.663253720168444 0 0 0
286 2 10.911380840664341 27.898635870606224 4.663253720168709 0 0 0
288 2 14.028918460202167 27.89863587060659 4.663253720168794 0 0 0
287 2 17.146456079740023 27.898635870606523 4.663253720168745 0 0 0
285 2 20.26399369927846 27.898635870606512 4.663253720168791 0 0 0
284 2 23.381531318816947 27.89863587060651 4.663253720168834 0 0 0
282 2 26.499068938355123 27.898635870606455 4.663253720168734 0 0 0
289 3 3.117536791818236 30.598503858692105 1.5454396131644355 0 0 0
290 3 6.235074411355206 30.598503858692645 1.5454396131648775 0 0 0
291 3 9.352612030894617 30.598503858692787 1.545439613164643 0 0 0
292 3 12.470149650432603 30.59850385869279 1.545439613164559 0 0 0
293 3 15.587687269970697 30.598503858692887 1.5454396131646404 0 0 0
294 3 18.70522488950922 30.59850385869279 1.5454396131646682 0 0 0
295 3 21.822762509047788 30.59850385869269 1.5454396131646686 0 0 0
296 3 24.940300128586053 30.598503858692734 1.5454396131646204 0 0 0
297 3 28.05783774812434 30.59850385869271 1.5454396131646626 0 0 0
298 3 1.5587679820469313 33.29837184677896 1.545439613163897 0 0 0
299 3 4.676305601585266 33.298371846778544 1.5454396131644206 0 0 0
300 3 7.793843221124863 33.29837184677906 1.5454396131648214 0 0 0
301 3 10.911380840664135 33.29837184677888 1.5454396131646049 0 0 0
302 3 14.02891846020198 33.29837184677898 1.5454396131645467 0 0 0
303 3 17.1464560797399 33.29837184677894 1.5454396131646142 0 0 0
304 3 20.263993699278437 33.29837184677882 1.5454396131646417 0 0 0
305 3 23.381531318816915 33.29837184677886 1.5454396131645414 0 0 0
306 3 26.499068938355183 33.298371846778885 1.5454396131645713 0 0 0
307 3 3.1175367918175527 35.99823983486477 1.545439613164659 0 0 0
308 3 6.235074411355837 35.998239834865046 1.5454396131645922 0 0 0
309 3 9.352612030894711 35.9982398348652 1.5454396131647774 0 0 0
310 3 12.470149650432694 35.99823983486516 1.5454396131645893 0 0 0
311 3 15.587687269970619 35.99823983486518 1.5454396131645856 0 0 0
312 3 18.705224889509108 35.998239834865025 1.5454396131646275 0 0 0
313 3 21.82276250904773 35.998239834865 1.5454396131646324 0 0 0
314 3 24.940300128586088 35.99823983486501 1.545439613164588 0 0 0
315 3 28.057837748124403 35.998239834865025 1.5454396131646462 0 0 0
316 3 1.558767982048084 38.69810782295152 1.5454396131645887 0 0 0
317 3 4.676305601586576 38.698107822951094 1.5454396131645258 0 0 0
318 3 7.793843221125108 38.69810782295122 1.5454396131645949 0 0 0
319 3 10.911380840663698 38.69810782295136 1.5454396131646613 0 0 0
320 3 14.028918460201863 38.69810782295134 1.5454396131646386 0 0 0
321 3 17.146456079739835 38.6981078229513 1.5454396131646462 0 0 0
322 3 20.263993699278405 38.69810782295127 1.5454396131646624 0 0 0
323 3 23.381531318816947 38.698107822951236 1.545439613164658 0 0 0
324 3 26.499068938355222 38.698107822951286 1.5454396131645367 0 0 0
325 3 3.117536791816283 41.39797581103816 1.5454396131648431 0 0 0
326 3 6.2350744113551055 41.397975811037504 1.5454396131646537 0 0 0
327 3 9.352612030894655 41.39797581103746 1.545439613164759 0 0 0
328 3 12.470149650432603 41.39797581103735 1.5454396131645556 0 0 0
329 3 15.587687269970607 41.397975811037504 1.545439613164564 0 0 0
330 3 18.705224889509136 41.39797581103749 1.5454396131646 0 0 0
331 3 21.822762509047788 41.397975811037405 1.5454396131645889 0 0 0
332 3 24.940300128586088 41.397975811037476 1.5454396131645831 0 0 0
333 3 28.057837748124403 41.397975811037576 1.5454396131646189 0 0 0
334 3 1.5587679820481906 44.09784379912306 1.5454396131634915 0 0 0
335 3 4.6763056015854625 44.0978437991229 1.5454396131643633 0 0 0
336 3 7.793843221125209 44.09784379912364 1.5454396131647474 0 0 0
337 3 10.911380840664034 44.09784379912353 1.5454396131647197 0 0 0
338 3 14.028918460201721 44.09784379912375 1.5454396131645998 0 0 0
339 3 17.146456079739686 44.09784379912386 1.545439613164649 0 0 0
340 3 20.263993699278405 44.09784379912375 1.5454396131647254 0 0 0
341 3 23.38153131881702 44.09784379912372 1.5454396131646482 0 0 0
342 3 26.499068938355183 44.097843799123766 1.5454396131646442 0 0 0
343 3 3.1175367918174914 46.79771178720958 1.5454396131641268 0 0 0
344 3 6.235074411355906 46.79771178720996 1.5454396131646637 0 0 0
345 3 9.352612030894727 46.79771178720974 1.5454396131645929 0 0 0
346 3 12.47014965043245 46.79771178720972 1.5454396131645831 0 0 0
347 3 15.587687269970505 46.79771178720998 1.5454396131646186 0 0 0
348 3 18.705224889509147 46.797711787209906 1.545439613164607 0 0 0
349 3 21.82276250904773 46.79771178720996 1.5454396131646082 0 0 0
350 3 24.940300128586127 46.797711787210076 1.5454396131646164 0 0 0
351 3 28.057837748124403 46.797711787210105 1.5454396131646004 0 0 0
352 3 1.5587679820470555 49.497579775296636 1.5454396131640447 0 0 0
353 3 4.676305601585766 49.49757977529616 1.5454396131644474 0 0 0
354 3 7.793843221125126 49.49757977529619 1.545439613164784 0 0 0
355 3 10.911380840663979 49.49757977529571 1.545439613164538 0 0 0
356 3 14.028918460201842 49.49757977529593 1.5454396131644852 0 0 0
357 3 17.14645607973987 49.497579775295996 1.545439613164623 0 0 0
358 3 20.26399369927846 49.497579775295996 1.5454396131646035 0 0 0
359 3 23.381531318816947 49.49757977529603 1.5454396131645975 0 0 0
360 3 26.499068938355183 49.497579775296124 1.5454396131645698 0 0 0
361 3 3.1175367918166024 52.197447763382115 1.5454396131644712 0 0 0
362 3 6.235074411355327 52.19744776338263 1.545439613165016 0 0 0
363 3 9.352612030894674 52.19744776338215 1.545439613164711 0 0 0
364 3 12.470149650432491 52.19744776338189 1.5454396131646033 0 0 0
365 3 15.587687269970623 52.19744776338223 1.5454396131646466 0 0 0
366 3 18.705224889509147 52.197447763382215 1.5454396131646522 0 0 0
367 3 21.82276250904773 52.19744776338237 1.5454396131646317 0 0 0
368 3 24.940300128586053 52.19744776338227 1.545439613164648 0 0 0
369 3 28.057837748124363 52.19744776338237 1.5454396131646468 0 0 0
370 3 1.5587679820464935 54.897315751467914 1.5454396131644583 0 0 0
371 3 4.676305601585271 54.89731575146861 1.5454396131643435 0 0 0
372 3 7.793843221125061 54.89731575146836 1.545439613164632 0 0 0
373 3 10.91138084066387 54.8973157514682 1.5454396131646766 0 0 0
374 3 14.028918460201888 54.89731575146839 1.5454396131646244 0 0 0
375 3 17.14645607973995 54.89731575146846 1.5454396131646237 0 0 0
376 3 20.263993699278547 54.897315751468426 1.545439613164572 0 0 0
377 3 23.381531318816876 54.89731575146827 1.5454396131646062 0 0 0
378 3 26.499068938355283 54.89731575146839 1.5454396131645856 0 0 0
558 1 28.057837748124363 55.79727184912233 3.104346666666708 0 0 0
557 1 24.940300128586053 55.797271849122446 3.1043466666666544 0 0 0
556 1 21.822762509047635 55.79727184912232 3.1043466666666744 0 0 0
555 1 18.705224889509125 55.79727184912229 3.104346666666675 0 0 0
554 1 15.58768726997095 55.797271849122474 3.10434666666669 0 0 0
553 1 12.470149650432825 55.797271849122254 3.104346666666744 0 0 0
552 1 9.352612030894432 55.797271849122225 3.1043466666667108 0 0 0
551 1 6.235074411354888 55.79727184912228 3.104346666666652 0 0 0
550 1 3.1175367918160033 55.79727184912236 3.1043466666667316 0 0 0
379 2 3.1175367918182686 30.598503858692023 4.663253720169244 0 0 0
548 2 26.4990689383552 54.89731575146839 4.6632537201688296 0 0 0
380 2 6.235074411355144 30.598503858692766 4.663253720168563 0 0 0
549 1 26.49906893835526 53.09740386103644 3.104346666666679 0 0 0
381 2 9.352612030894653 30.59850385869279 4.663253720168699 0 0 0
546 2 23.381531318816954 54.89731575146827 4.663253720168812 0 0 0
382 2 12.470149650432658 30.59850385869274 4.663253720168788 0 0 0
547 1 23.381531318817007 53.09740386103633 3.1043466666667117 0 0 0
383 2 15.587687269970674 30.598503858692887 4.663253720168709 0 0 0
544 2 20.26399369927851 54.897315751468525 4.66325372016874 0 0 0
384 2 18.70522488950924 30.59850385869271 4.663253720168717 0 0 0
545 1 20.263993699278622 53.09740386103638 3.104346666666669 0 0 0
385 2 21.822762509047823 30.598503858692787 4.663253720168757 0 0 0
542 2 17.146456079739938 54.89731575146845 4.663253720168729 0 0 0
386 2 24.940300128585978 30.59850385869274 4.663253720168707 0 0 0
543 1 17.146456079739973 53.097403861036355 3.1043466666666664 0 0 0
387 2 28.057837748124363 30.59850385869269 4.663253720168704 0 0 0
540 2 14.02891846020189 54.89731575146839 4.663253720168742 0 0 0
388 2 1.558767982046958 33.29837184677964 4.663253720168866 0 0 0
389 1 1.55876798204835 31.49845995634633 3.1043466666665855 0 0 0
390 2 4.676305601585171 33.29837184677863 4.663253720168819 0 0 0
391 1 4.676305601586191 31.49845995634682 3.104346666666817 0 0 0
392 2 7.793843221124759 33.29837184677896 4.663253720168633 0 0 0
393 1 7.79384322112493 31.49845995634656 3.1043466666666886 0 0 0
394 2 10.911380840664211 33.298371846778885 4.663253720168761 0 0 0
395 1 10.91138084066376 31.498459956346814 3.104346666666694 0 0 0
396 2 14.028918460201943 33.29837184677896 4.6632537201687665 0 0 0
397 1 14.028918460201643 31.49845995634703 3.1043466666666566 0 0 0
398 2 17.146456079739874 33.29837184677897 4.663253720168774 0 0 0
399 1 17.146456079740013 31.498459956346842 3.1043466666667023 0 0 0
400 2 20.26399369927848 33.29837184677894 4.663253720168818 0 0 0
401 1 20.263993699278625 31.49845995634676 3.1043466666667254 0 0 0
402 2 23.381531318816954 33.29837184677886 4.663253720168792 0 0 0
403 1 23.38153131881702 31.498459956346803 3.1043466666666664 0 0 0
404 2 26.499068938355215 33.2983718467789 4.663253720168735 0 0 0
405 1 26.499068938355222 31.498459956346803 3.104346666666661 0 0 0
406 1 3.117536791815877 34.198327944432776 3.104346666666618 0 0 0
407 2 3.117536791817764 35.9982398348649 4.663253720168882 0 0 0
408 1 6.235074411354689 34.19832794443261 3.104346666666616 0 0 0
409 2 6.235074411355726 35.99823983486512 4.663253720168721 0 0 0
410 1 9.3526120308946 34.19832794443287 3.1043466666667423 0 0 0
411 2 9.352612030894674 35.998239834865295 4.663253720168758 0 0 0
412 1 12.470149650433052 34.19832794443303 3.1043466666666597 0 0 0
413 2 12.470149650432734 35.99823983486506 4.663253720168818 0 0 0
414 1 15.587687269970894 34.19832794443301 3.1043466666666593 0 0 0
415 2 15.587687269970674 35.99823983486516 4.663253720168783 0 0 0
416 1 18.705224889509182 34.19832794443284 3.104346666666693 0 0 0
417 2 18.705224889509182 35.99823983486501 4.663253720168765 0 0 0
418 1 21.822762509047784 34.19832794443289 3.1043466666666792 0 0 0
419 2 21.822762509047784 35.998239834865 4.6632537201687 0 0 0
420 1 24.940300128586053 34.198327944432855 3.104346666666653 0 0 0
421 2 24.940300128586053 35.998239834865 4.663253720168778 0 0 0
422 1 28.057837748124264 34.198327944432805 3.104346666666675 0 0 0
423 2 28.057837748124413 35.998239834865025 4.663253720168728 0 0 0
424 2 1.558767982047326 38.698107822952004 4.663253720168218 0 0 0