LAMMPS data file via write_data, version 2 Aug 2023, timestep = 2317, units = metal

28336 atoms
3 atom types

0 935.2615511711996 xlo xhi
0 86.39579487656728 ylo yhi
0 50 zlo zhi
0 0 0 xy xz yz

Masses

1 95.94
2 32.065
3 32.065

Atoms # atomic

1 3 1.558768424234927 0.8999561716147885 1.5454401499130312 0 0 0
2 3 4.67630692813686 0.8999561716157193 1.5454401499141108 0 0 0
3 3 7.793845432039158 0.8999561716156382 1.5454401499135637 0 0 0
4 3 10.911383935943777 0.8999561716158124 1.5454401499142534 0 0 0
5 3 14.028922439848271 0.8999561716156227 1.5454401499139336 0 0 0
6 3 17.14646094375141 0.8999561716157077 1.5454401499139563 0 0 0
7 3 20.26399944765574 0.8999561716157474 1.5454401499141184 0 0 0
8 3 23.381537951560095 0.8999561716156919 1.5454401499140926 0 0 0
9 3 26.499076455463758 0.8999561716156593 1.5454401499140256 0 0 0
10 3 29.616614959367293 0.8999561716154936 1.5454401499139647 0 0 0
11 3 32.73415346327086 0.8999561716156619 1.5454401499139998 0 0 0
12 3 35.85169196717459 0.8999561716155893 1.5454401499139894 0 0 0
13 3 38.969230471078575 0.8999561716157233 1.5454401499141273 0 0 0
14 3 3.1175376761855147 3.5998247615087386 1.5454401499142314 0 0 0
15 3 6.235076180088812 3.5998247615082852 1.5454401499134351 0 0 0
16 3 9.352614683992083 3.599824761508489 1.5454401499141965 0 0 0
17 3 12.470153187896154 3.5998247615081165 1.5454401499140844 0 0 0
18 3 15.5876916917993 3.5998247615082746 1.545440149914026 0 0 0
19 3 18.705230195703237 3.5998247615083607 1.5454401499141823 0 0 0
20 3 21.822768699608034 3.5998247615083767 1.545440149914117 0 0 0
21 3 24.940307203512035 3.5998247615083248 1.5454401499140706 0 0 0
22 3 28.057845707415478 3.5998247615082706 1.5454401499140948 0 0 0
23 3 31.17538421131881 3.5998247615081924 1.5454401499140729 0 0 0
24 3 34.29292271522268 3.599824761508205 1.5454401499141293 0 0 0
25 3 37.410461219126596 3.599824761508263 1.5454401499141435 0 0 0
26 3 1.5587684242337776 6.2996933514007445 1.5454401499126815 0 0 0
27 3 4.676306928136857 6.299693351400878 1.5454401499134638 0 0 0
28 3 7.7938454320389345 6.299693351400913 1.5454401499138328 0 0 0
29 3 10.911383935943636 6.2996933514011655 1.5454401499143147 0 0 0
30 3 14.028922439848227 6.299693351400796 1.5454401499140324 0 0 0
31 3 17.14646094375141 6.299693351400935 1.5454401499140533 0 0 0
32 3 20.2639994476557 6.299693351401009 1.5454401499141326 0 0 0
33 3 23.381537951560095 6.299693351401078 1.545440149914106 0 0 0
34 3 26.499076455463758 6.299693351401005 1.5454401499140837 0 0 0
35 3 29.61661495936723 6.299693351400937 1.545440149913995 0 0 0
36 3 32.73415346327086 6.299693351401029 1.5454401499140498 0 0 0
37 3 35.851691967174624 6.29969335140091 1.54544014991406 0 0 0
38 3 38.969230471078575 6.299693351400961 1.5454401499141073 0 0 0
39 3 3.117537676184549 8.999561941295458 1.545440149914013 0 0 0
40 3 6.235076180088997 8.999561941293225 1.545440149913193 0 0 0
41 3 9.352614683992085 8.999561941293548 1.5454401499142123 0 0 0
42 3 12.470153187895873 8.999561941293559 1.54544014991408 0 0 0
43 3 15.587691691799245 8.999561941293674 1.5454401499140522 0 0 0
44 3 18.70523019570346 8.999561941293752 1.5454401499141908 0 0 0
45 3 21.822768699608144 8.999561941293807 1.5454401499140835 0 0 0
46 3 24.940307203512127 8.999561941293752 1.5454401499140837 0 0 0
47 3 28.05784570741548 8.999561941293681 1.5454401499140602 0 0 0
48 3 31.175384211319 8.999561941293736 1.5454401499140205 0 0 0
49 3 34.29292271522266 8.999561941293718 1.5454401499140997 0 0 0
50 3 37.410461219126596 8.999561941293656 1.5454401499140884 0 0 0
51 3 1.558768424232412 11.699430531186545 1.545440149914156 0 0 0
52 3 4.676306928135592 11.699430531186808 1.5454401499136035 0 0 0
53 3 7.793845432039197 11.69943053118612 1.5454401499137689 0 0 0
54 3 10.911383935943851 11.69943053118638 1.5454401499144148 0 0 0
55 3 14.028922439848152 11.699430531186188 1.5454401499140835 0 0 0
56 3 17.14646094375146 11.699430531186355 1.5454401499141162 0 0 0
57 3 20.2639994476558 11.699430531186428 1.5454401499141024 0 0 0
58 3 23.38153795156017 11.69943053118642 1.545440149914075 0 0 0
59 3 26.499076455463758 11.69943053118634 1.5454401499140336 0 0 0
60 3 29.61661495936723 11.699430531186284 1.5454401499140955 0 0 0
61 3 32.734153463270935 11.69943053118638 1.5454401499140964 0 0 0
62 3 35.85169196717459 11.699430531186266 1.5454401499139618 0 0 0
63 3 38.969230471078575 11.699430531186403 1.5454401499141441 0 0 0
64 3 3.1175376761847042 14.39929912107917 1.5454401499150314 0 0 0
65 3 6.235076180088101 14.39929912107899 1.5454401499130346 0 0 0
66 3 9.352614683992076 14.399299121078938 1.5454401499142918 0 0 0
67 3 12.470153187896265 14.399299121078913 1.5454401499140578 0 0 0
68 3 15.587691691799263 14.399299121079112 1.545440149914025 0 0 0
69 3 18.705230195703408 14.39929912107916 1.5454401499141595 0 0 0
70 3 21.822768699608112 14.399299121079064 1.5454401499141281 0 0 0
71 3 24.9403072035121 14.399299121079096 1.545440149914069 0 0 0
72 3 28.057845707415478 14.399299121079057 1.5454401499140487 0 0 0
73 3 31.175384211319 14.399299121078986 1.54544014991409 0 0 0
74 3 34.29292271522273 14.39929912107912 1.5454401499140513 0 0 0
75 3 37.41046121912666 14.399299121079034 1.5454401499141208 0 0 0
76 3 1.558768424233878 17.099167710971088 1.5454401499132142 0 0 0
77 3 4.676306928136593 17.099167710972207 1.545440149913899 0 0 0
78 3 7.793845432039037 17.0991677109719 1.5454401499139312 0 0 0
79 3 10.911383935943881 17.099167710971884 1.5454401499141917 0 0 0
80 3 14.028922439848097 17.09916771097176 1.545440149914127 0 0 0
81 3 17.146460943751396 17.09916771097189 1.5454401499140624 0 0 0
82 3 20.263999447655834 17.099167710971894 1.5454401499141237 0 0 0
83 3 23.381537951560095 17.099167710971898 1.5454401499140646 0 0 0
84 3 26.499076455463754 17.099167710971795 1.545440149914067 0 0 0
85 3 29.616614959367205 17.099167710971805 1.5454401499140114 0 0 0
86 3 32.73415346327066 17.09916771097189 1.545440149914091 0 0 0
87 3 35.851691967174474 17.09916771097187 1.5454401499140493 0 0 0
88 3 38.96923047107854 17.09916771097198 1.54544014991414 0 0 0
89 3 3.1175376761847797 19.7990363008646 1.5454401499142985 0 0 0
90 3 6.235076180087635 19.799036300864827 1.5454401499139099 0 0 0
91 3 9.35261468399197 19.799036300864863 1.5454401499141552 0 0 0
92 3 12.47015318789636 19.799036300864454 1.5454401499140422 0 0 0
93 3 15.587691691799357 19.799036300864657 1.5454401499140686 0 0 0
94 3 18.70523019570346 19.79903630086466 1.545440149914193 0 0 0
95 3 21.822768699608144 19.799036300864664 1.545440149914107 0 0 0
96 3 24.940307203511978 19.799036300864636 1.5454401499141108 0 0 0
97 3 28.057845707415478 19.79903630086454 1.5454401499140282 0 0 0
98 3 31.175384211318978 19.79903630086447 1.5454401499140646 0 0 0
99 3 34.29292271522254 19.79903630086467 1.54544014991406 0 0 0
100 3 37.4104612191265 19.799036300864643 1.545440149914145 0 0 0
101 3 1.5587684242331754 22.498904890756872 1.5454401499128358 0 0 0
102 3 4.676306928136614 22.498904890756755 1.5454401499142856 0 0 0
103 3 7.793845432038607 22.49890489075731 1.5454401499138537 0 0 0
104 3 10.911383935943697 22.49890489075765 1.5454401499142842 0 0 0
105 3 14.028922439848358 22.498904890757235 1.5454401499140917 0 0 0
106 3 17.146460943751446 22.49890489075742 1.5454401499140482 0 0 0
107 3 20.26399944765576 22.49890489075734 1.5454401499141568 0 0 0
108 3 23.38153795156013 22.49890489075738 1.5454401499140515 0 0 0
109 3 26.499076455463786 22.49890489075714 1.545440149914112 0 0 0
110 3 29.616614959367183 22.498904890757245 1.5454401499140646 0 0 0
111 3 32.73415346327085 22.498904890757302 1.5454401499140973 0 0 0
112 3 35.85169196717459 22.49890489075728 1.5454401499139891 0 0 0
113 3 38.96923047107842 22.49890489075733 1.5454401499141335 0 0 0
114 3 3.1175376761857994 25.198773480649663 1.5454401499147314 0 0 0
115 3 6.23507618008887 25.19877348064938 1.5454401499136223 0 0 0
116 3 9.352614683991973 25.198773480650118 1.5454401499143062 0 0 0
117 3 12.470153187896283 25.198773480650146 1.5454401499140538 0 0 0
118 3 15.587691691799217 25.198773480650203 1.545440149914023 0 0 0
119 3 18.70523019570331 25.198773480650146 1.545440149914202 0 0 0
120 3 21.82276869960811 25.19877348065012 1.5454401499141528 0 0 0
121 3 24.94030720351209 25.198773480649972 1.5454401499141213 0 0 0
122 3 28.057845707415492 25.198773480649987 1.5454401499140293 0 0 0
123 3 31.17538421131894 25.198773480649955 1.5454401499141506 0 0 0
124 3 34.29292271522288 25.198773480649958 1.5454401499140613 0 0 0
125 3 37.410461219126596 25.19877348065005 1.545440149914083 0 0 0
126 3 1.558768424233951 27.898642070542937 1.5454401499144939 0 0 0
127 3 4.676306928137378 27.89864207054254 1.545440149913874 0 0 0
128 3 7.793845432038664 27.898642070542778 1.545440149914144 0 0 0
129 3 10.911383935943775 27.89864207054307 1.545440149914243 0 0 0
130 3 14.02892243984821 27.89864207054281 1.545440149914032 0 0 0
131 3 17.146460943751276 27.898642070542902 1.5454401499141124 0 0 0
132 3 20.263999447655664 27.898642070542905 1.5454401499141572 0 0 0
133 3 23.38153795156017 27.898642070542827 1.545440149914139 0 0 0
134 3 26.499076455463786 27.89864207054281 1.5454401499140626 0 0 0
135 3 29.616614959367183 27.898642070542856 1.5454401499140684 0 0 0
136 3 32.73415346327071 27.898642070542905 1.5454401499140746 0 0 0
137 3 35.85169196717469 27.89864207054284 1.5454401499141897 0 0 0
138 3 38.96923047107842 27.898642070542905 1.545440149914137 0 0 0
139 2 1.5587684242338364 0.8999561716160154 4.663253183419332 0 0 0
140 2 4.676306928137138 0.8999561716157518 4.663253183419455 0 0 0
141 1 3.1175376761853597 1.7999125260653048 3.104346666666473 0 0 0
142 1 6.235076180088144 1.7999125260654847 3.1043466666664887 0 0 0
143 2 7.7938454320388875 0.899956171615715 4.663253183419219 0 0 0
144 1 9.352614683991225 1.7999125260647166 3.10434666666661 0 0 0
145 2 10.911383935943693 0.8999561716158725 4.663253183419214 0 0 0
146 1 12.47015318789622 1.799912526064722 3.1043466666667228 0 0 0
147 2 14.028922439848339 0.8999561716155544 4.66325318341945 0 0 0
148 1 15.587691691799769 1.7999125260649873 3.1043466666666575 0 0 0
149 2 17.146460943751357 0.8999561716156552 4.663253183419358 0 0 0
150 2 20.26399944765576 0.8999561716158121 4.663253183419322 0 0 0
151 1 18.70523019570345 1.7999125260647613 3.1043466666666966 0 0 0
152 1 21.822768699607888 1.7999125260649185 3.104346666666716 0 0 0
153 2 23.38153795156013 0.8999561716156713 4.663253183419319 0 0 0
154 1 24.940307203512024 1.7999125260649664 3.1043466666666863 0 0 0
155 2 26.499076455463758 0.8999561716156603 4.663253183419356 0 0 0
156 1 28.057845707415517 1.7999125260648683 3.1043466666666886 0 0 0
157 2 29.61661495936727 0.8999561716155033 4.663253183419401 0 0 0
158 1 31.175384211319006 1.7999125260647963 3.104346666666683 0 0 0
159 2 32.734153463270786 0.8999561716156829 4.663253183419449 0 0 0
160 2 35.851691967174624 0.8999561716156098 4.663253183419383 0 0 0
161 1 34.29292271522269 1.799912526064775 3.104346666666707 0 0 0
162 2 38.96923047107842 0.8999561716156647 4.663253183419261 0 0 0
163 1 37.410461219126496 1.799912526064911 3.1043466666666997 0 0 0
164 1 1.5587684242335653 4.499781115958348 3.1043466666665265 0 0 0
165 1 4.676306928137616 4.499781115957918 3.1043466666666375 0 0 0
166 2 3.1175376761857607 3.599824761508752 4.663253183419223 0 0 0
167 1 7.793845432039812 4.499781115957687 3.104346666666631 0 0 0
168 2 6.235076180088705 3.599824761508107 4.663253183419597 0 0 0
169 2 9.352614683991876 3.599824761508441 4.663253183419086 0 0 0
170 1 10.91138393594417 4.499781115957508 3.1043466666667423 0 0 0
171 2 12.470153187896235 3.5998247615081667 4.663253183419354 0 0 0
172 1 14.02892243984778 4.499781115957597 3.1043466666666815 0 0 0
173 2 15.58769169179928 3.5998247615082724 4.6632531834193145 0 0 0
174 1 17.146460943751208 4.4997811159575445 3.1043466666667032 0 0 0
175 1 20.263999447655674 4.499781115957461 3.1043466666667014 0 0 0
176 2 18.705230195703272 3.599824761508372 4.663253183419192 0 0 0
177 1 23.381537951560095 4.499781115957605 3.104346666666692 0 0 0
178 2 21.82276869960807 3.599824761508359 4.663253183419304 0 0 0
179 2 24.940307203512052 3.599824761508339 4.663253183419306 0 0 0
180 1 26.499076455463765 4.499781115957635 3.10434666666668 0 0 0
181 2 28.057845707415485 3.5998247615082644 4.663253183419299 0 0 0
182 1 29.616614959367208 4.499781115957629 3.1043466666666975 0 0 0
183 2 31.17538421131883 3.5998247615081866 4.663253183419309 0 0 0
184 1 32.73415346327072 4.499781115957627 3.1043466666666895 0 0 0
185 1 35.85169196717452 4.49978111595749 3.1043466666666917 0 0 0
186 2 34.29292271522251 3.599824761508226 4.663253183419257 0 0 0
187 1 38.969230471078575 4.4997811159575285 3.1043466666667108 0 0 0
188 2 37.4104612191265 3.5998247615083345 4.663253183419232 0 0 0
189 2 1.5587684242339135 6.2996933514009585 4.663253183421007 0 0 0
190 2 4.676306928136196 6.2996933514010625 4.663253183419598 0 0 0
191 1 3.11753767618427 7.199649705850397 3.1043466666663253 0 0 0
192 1 6.2350761800874475 7.199649705850401 3.1043466666665434 0 0 0
193 2 7.793845432038597 6.299693351400858 4.663253183419474 0 0 0
194 1 9.352614683990982 7.199649705849979 3.1043466666667223 0 0 0
195 2 10.911383935943595 6.299693351401195 4.663253183419143 0 0 0
196 1 12.47015318789612 7.19964970585015 3.104346666666707 0 0 0
197 2 14.028922439848264 6.299693351400838 4.66325318341933 0 0 0
198 1 15.58769169179973 7.199649705850411 3.10434666666668 0 0 0
199 2 17.146460943751393 6.2996933514009505 4.6632531834193305 0 0 0
200 2 20.26399944765576 6.299693351401037 4.663253183419263 0 0 0
201 1 18.705230195703454 7.19964970585012 3.1043466666667 0 0 0
202 1 21.822768699607963 7.199649705850305 3.1043466666666775 0 0 0
203 2 23.381537951560055 6.299693351401056 4.663253183419293 0 0 0
204 1 24.940307203512013 7.199649705850383 3.104346666666715 0 0 0
205 2 26.499076455463765 6.2996933514009985 4.663253183419317 0 0 0
206 1 28.057845707415517 7.199649705850384 3.1043466666666997 0 0 0
207 2 29.61661495936723 6.2996933514009745 4.663253183419327 0 0 0
208 1 31.175384211319 7.1996497058503035 3.1043466666666575 0 0 0
209 2 32.734153463270935 6.299693351401094 4.663253183419269 0 0 0
210 2 35.851691967174624 6.299693351400838 4.6632531834193705 0 0 0
211 1 34.292922715222765 7.199649705850335 3.1043466666666886 0 0 0
212 2 38.96923047107854 6.299693351401053 4.66325318341926 0 0 0
213 1 37.410461219126596 7.1996497058502085 3.1043466666667006 0 0 0
214 1 1.5587684242343283 9.899518295743716 3.104346666666775 0 0 0
215 1 4.676306928137592 9.899518295743267 3.104346666666282 0 0 0
216 2 3.1175376761856364 8.999561941294491 4.663253183418612 0 0 0
217 1 7.793845432039896 9.899518295742816 3.1043466666665016 0 0 0
218 2 6.2350761800886465 8.999561941293294 4.663253183419467 0 0 0
219 2 9.352614683991892 8.999561941293585 4.663253183419202 0 0 0
220 1 10.911383935943984 9.899518295742729 3.1043466666667956 0 0 0
221 2 12.470153187896004 8.999561941293537 4.663253183419393 0 0 0
222 1 14.028922439847573 9.899518295742972 3.104346666666691 0 0 0
223 2 15.587691691799197 8.999561941293674 4.663253183419338 0 0 0
224 1 17.146460943751276 9.899518295742936 3.104346666666709 0 0 0
225 1 20.263999447655813 9.899518295742894 3.1043466666666886 0 0 0
226 2 18.70523019570346 8.999561941293774 4.663253183419202 0 0 0
227 1 23.38153795156013 9.899518295743007 3.1043466666666903 0 0 0
228 2 21.822768699608183 8.999561941293804 4.663253183419299 0 0 0
229 2 24.94030720351217 8.999561941293756 4.663253183419355 0 0 0
230 1 26.499076455463833 9.89951829574306 3.104346666666695 0 0 0
231 2 28.057845707415524 8.999561941293747 4.66325318341933 0 0 0
232 1 29.616614959367208 9.899518295743084 3.1043466666666815 0 0 0
233 2 31.17538421131894 8.999561941293704 4.663253183419289 0 0 0
234 1 32.73415346327085 9.899518295742968 3.1043466666666797 0 0 0
235 1 35.85169196717469 9.899518295742958 3.104346666666682 0 0 0
236 2 34.29292271522266 8.999561941293774 4.663253183419325 0 0 0
237 1 38.96923047107861 9.899518295742872 3.1043466666666713 0 0 0
238 2 37.410461219126596 8.999561941293695 4.6632531834192905 0 0 0
239 2 1.5587684242335675 11.699430531186039 4.663253183420247 0 0 0
240 2 4.67630692813663 11.699430531186414 4.663253183419268 0 0 0
241 1 3.1175376761841513 12.59938688563585 3.104346666667066 0 0 0
242 1 6.235076180087425 12.599386885636052 3.104346666666138 0 0 0
243 2 7.793845432038566 11.699430531186305 4.663253183419104 0 0 0
244 1 9.352614683991275 12.59938688563531 3.1043466666667356 0 0 0
245 2 10.91138393594385 11.699430531186396 4.663253183419292 0 0 0
246 1 12.470153187896162 12.599386885635571 3.104346666666796 0 0 0
247 2 14.028922439848214 11.699430531186195 4.6632531834193385 0 0 0
248 1 15.587691691799716 12.599386885635825 3.1043466666666744 0 0 0
249 2 17.146460943751407 11.699430531186355 4.663253183419303 0 0 0
250 2 20.26399944765576 11.699430531186382 4.663253183419289 0 0 0
251 1 18.70523019570353 12.599386885635573 3.1043466666667006 0 0 0
252 1 21.822768699607924 12.599386885635647 3.1043466666667063 0 0 0
253 2 23.38153795156013 11.69943053118642 4.663253183419305 0 0 0
254 1 24.940307203512024 12.599386885635779 3.1043466666666784 0 0 0
255 2 26.49907645546372 11.69943053118634 4.663253183419343 0 0 0
256 1 28.05784570741537 12.59938688563573 3.104346666666711 0 0 0
257 2 29.616614959367208 11.699430531186259 4.663253183419323 0 0 0
258 1 31.175384211318974 12.599386885635695 3.1043466666666912 0 0 0
259 2 32.734153463270786 11.69943053118638 4.663253183419303 0 0 0
260 2 35.85169196717469 11.699430531186326 4.663253183419303 0 0 0
261 1 34.29292271522266 12.599386885635695 3.1043466666667148 0 0 0
262 2 38.96923047107842 11.699430531186328 4.663253183419224 0 0 0
263 1 37.410461219126596 12.599386885635596 3.10434666666663 0 0 0
264 1 1.5587684242341373 15.29925547552929 3.104346666666729 0 0 0
265 1 4.676306928137357 15.299255475528758 3.1043466666666775 0 0 0
266 2 3.117537676185188 14.399299121079864 4.663253183419242 0 0 0
267 1 7.793845432039498 15.299255475528277 3.104346666666439 0 0 0
268 2 6.235076180088193 14.399299121078585 4.6632531834194575 0 0 0
269 2 9.352614683991806 14.39929912107916 4.663253183419088 0 0 0
270 1 10.911383935944189 15.29925547552824 3.104346666666748 0 0 0
271 2 12.47015318789633 14.399299121078954 4.663253183419498 0 0 0
272 1 14.02892243984774 15.299255475528488 3.1043466666667268 0 0 0
273 2 15.58769169179928 14.399299121079082 4.663253183419348 0 0 0
274 1 17.146460943751283 15.299255475528378 3.104346666666698 0 0 0
275 1 20.2639994476557 15.299255475528344 3.104346666666701 0 0 0
276 2 18.705230195703347 14.399299121079153 4.663253183419229 0 0 0
277 1 23.381537951560095 15.299255475528463 3.1043466666666895 0 0 0
278 2 21.822768699608147 14.399299121079096 4.663253183419257 0 0 0
279 2 24.940307203512063 14.399299121079078 4.66325318341932 0 0 0
280 1 26.499076455463733 15.299255475528456 3.104346666666694 0 0 0
281 2 28.05784570741548 14.399299121079016 4.663253183419345 0 0 0
282 1 29.616614959367215 15.299255475528481 3.104346666666683 0 0 0
283 2 31.175384211318857 14.399299121079064 4.663253183419354 0 0 0
284 1 32.73415346327071 15.29925547552847 3.1043466666666997 0 0 0
285 1 35.851691967174666 15.299255475528433 3.1043466666666664 0 0 0
286 2 34.29292271522266 14.399299121079105 4.663253183419277 0 0 0
287 1 38.969230471078646 15.299255475528405 3.1043466666666775 0 0 0
288 2 37.41046121912666 14.399299121079048 4.663253183419215 0 0 0
289 2 1.558768424234045 17.09916771097132 4.663253183420419 0 0 0
290 2 4.676306928136508 17.09916771097194 4.6632531834194975 0 0 0
291 1 3.1175376761841473 17.99912406542096 3.104346666666749 0 0 0
292 1 6.235076180087641 17.999124065421753 3.104346666666811 0 0 0
293 2 7.793845432039249 17.099167710971646 4.663253183419286 0 0 0
294 1 9.352614683991375 17.99912406542103 3.104346666666546 0 0 0
295 2 10.911383935943732 17.09916771097202 4.6632531834191635 0 0 0
296 1 12.470153187896154 17.999124065421057 3.1043466666667685 0 0 0
297 2 14.02892243984817 17.09916771097169 4.663253183419364 0 0 0
298 1 15.58769169179972 17.99912406542137 3.104346666666697 0 0 0
299 2 17.146460943751467 17.09916771097189 4.663253183419295 0 0 0
300 2 20.263999447655834 17.09916771097189 4.6632531834192665 0 0 0
301 1 18.70523019570356 17.99912406542113 3.104346666666681 0 0 0
302 1 21.822768699607995 17.999124065421185 3.1043466666667108 0 0 0
303 2 23.381537951560095 17.099167710971898 4.663253183419308 0 0 0
304 1 24.940307203512035 17.999124065421213 3.1043466666666877 0 0 0
305 2 26.49907645546371 17.099167710971766 4.663253183419326 0 0 0
306 1 28.057845707415517 17.99912406542122 3.1043466666666855 0 0 0
307 2 29.61661495936723 17.099167710971717 4.663253183419282 0 0 0
308 1 31.175384211318928 17.999124065421235 3.104346666666699 0 0 0
309 2 32.73415346327071 17.09916771097189 4.663253183419323 0 0 0
310 2 35.85169196717459 17.099167710971788 4.663253183419246 0 0 0
311 1 34.29292271522273 17.99912406542125 3.1043466666666664 0 0 0
312 2 38.96923047107854 17.09916771097189 4.6632531834193305 0 0 0
313 1 37.410461219126454 17.999124065421206 3.1043466666667134 0 0 0
314 1 1.5587684242335074 20.698992655314157 3.104346666666528 0 0 0
315 1 4.676306928136504 20.69899265531362 3.1043466666668946 0 0 0
316 2 3.1175376761842752 19.799036300864763 4.663253183419022 0 0 0
317 1 7.79384543203946 20.698992655314107 3.1043466666665482 0 0 0
318 2 6.235076180088024 19.799036300864774 4.663253183419736 0 0 0
319 2 9.352614683991888 19.799036300864806 4.663253183418922 0 0 0
320 1 10.911383935944297 20.698992655313898 3.1043466666666553 0 0 0
321 2 12.470153187896281 19.799036300864504 4.663253183419454 0 0 0
322 1 14.028922439847854 20.698992655314065 3.1043466666667707 0 0 0
323 2 15.587691691799375 19.799036300864636 4.663253183419386 0 0 0
324 1 17.146460943751396 20.69899265531398 3.1043466666666846 0 0 0
325 1 20.263999447655813 20.698992655313805 3.1043466666666912 0 0 0
326 2 18.705230195703372 19.799036300864685 4.663253183419166 0 0 0
327 1 23.38153795156013 20.698992655313944 3.1043466666666855 0 0 0
328 2 21.822768699608183 19.79903630086467 4.663253183419285 0 0 0
329 2 24.940307203511978 19.79903630086454 4.6632531834192745 0 0 0
330 1 26.49907645546381 20.698992655313887 3.1043466666667046 0 0 0
331 2 28.057845707415446 19.799036300864486 4.663253183419326 0 0 0
332 1 29.616614959367183 20.69899265531407 3.104346666666681 0 0 0
333 2 31.175384211318928 19.79903630086454 4.663253183419292 0 0 0
334 1 32.73415346327072 20.698992655313898 3.1043466666666784 0 0 0
335 1 35.85169196717459 20.698992655313926 3.104346666666658 0 0 0
336 2 34.29292271522266 19.799036300864678 4.663253183419283 0 0 0
337 1 38.969230471078575 20.69899265531389 3.104346666666736 0 0 0
338 2 37.41046121912653 19.799036300864582 4.663253183419224 0 0 0
339 2 1.5587684242329785 22.498904890756176 4.66325318342014 0 0 0
340 2 4.676306928136536 22.49890489075687 4.663253183419189 0 0 0
341 1 3.1175376761841482 23.39886124520562 3.1043466666667414 0 0 0
342 1 6.235076180087788 23.39886124520678 3.1043466666666566 0 0 0
343 2 7.793845432038766 22.498904890757103 4.66325318341946 0 0 0
344 1 9.352614683990977 23.39886124520649 3.1043466666666792 0 0 0
345 2 10.911383935943567 22.498904890757554 4.663253183419092 0 0 0
346 1 12.470153187896251 23.398861245206756 3.1043466666667294 0 0 0
347 2 14.028922439848337 22.49890489075731 4.6632531834193856 0 0 0
348 1 15.587691691799844 23.39886124520691 3.1043466666666886 0 0 0
349 2 17.146460943751507 22.498904890757377 4.663253183419321 0 0 0
350 2 20.2639994476558 22.49890489075742 4.663253183419253 0 0 0
351 1 18.7052301957035 23.39886124520659 3.104346666666704 0 0 0
352 1 21.82276869960804 23.39886124520665 3.1043466666666775 0 0 0
353 2 23.381537951560055 22.498904890757323 4.663253183419289 0 0 0
354 1 24.940307203511995 23.398861245206607 3.1043466666667 0 0 0
355 2 26.499076455463726 22.49890489075723 4.663253183419334 0 0 0
356 1 28.057845707415446 23.39886124520668 3.104346666666722 0 0 0
357 2 29.616614959367208 22.498904890757235 4.663253183419344 0 0 0
358 1 31.175384211319038 23.398861245206717 3.104346666666725 0 0 0
359 2 32.734153463270786 22.498904890757267 4.663253183419288 0 0 0
360 2 35.85169196717473 22.49890489075731 4.663253183419266 0 0 0
361 1 34.29292271522266 23.39886124520667 3.104346666666657 0 0 0
362 2 38.969230471078575 22.49890489075738 4.663253183419391 0 0 0
363 1 37.410461219126596 23.398861245206636 3.104346666666675 0 0 0
364 1 1.5587684242337319 26.09872983509906 3.1043466666662898 0 0 0
365 1 4.676306928137985 26.098729835099004 3.1043466666666166 0 0 0
366 2 3.1175376761857003 25.19877348064995 4.66325318341854 0 0 0
367 1 7.793845432039961 26.09872983509925 3.1043466666666926 0 0 0
368 2 6.235076180089083 25.19877348064926 4.663253183419572 0 0 0
369 2 9.352614683992199 25.19877348065005 4.663253183419148 0 0 0
370 1 10.911383935944238 26.098729835099345 3.1043466666667165 0 0 0
371 2 12.470153187896287 25.19877348065007 4.663253183419378 0 0 0
372 1 14.028922439847786 26.098729835099558 3.1043466666667046 0 0 0
373 2 15.58769169179922 25.198773480650136 4.663253183419359 0 0 0
374 1 17.146460943751208 26.098729835099387 3.1043466666667094 0 0 0
375 1 20.263999447655703 26.09872983509925 3.10434666666669 0 0 0
376 2 18.70523019570331 25.198773480650146 4.663253183419229 0 0 0
377 1 23.381537951560208 26.098729835099395 3.1043466666667108 0 0 0
378 2 21.822768699608105 25.198773480650097 4.66325318341929 0 0 0
379 2 24.94030720351209 25.198773480649944 4.663253183419289 0 0 0
380 1 26.499076455463765 26.098729835099395 3.1043466666666997 0 0 0
381 2 28.057845707415517 25.198773480650022 4.663253183419287 0 0 0
382 1 29.616614959367144 26.098729835099395 3.1043466666666673 0 0 0
383 2 31.17538421131894 25.198773480649997 4.66325318341929 0 0 0
384 1 32.734153463270786 26.098729835099334 3.1043466666666903 0 0 0
385 1 35.851691967174666 26.098729835099416 3.1043466666666606 0 0 0
386 2 34.2929227152229 25.198773480649955 4.663253183419226 0 0 0
387 1 38.96923047107854 26.09872983509935 3.104346666666705 0 0 0
388 2 37.410461219126596 25.198773480650082 4.663253183419298 0 0 0
389 2 1.5587684242336182 27.898642070542685 4.66325318341853 0 0 0
390 2 4.676306928137055 27.89864207054241 4.66325318341917 0 0 0
393 2 7.79384543203896 27.89864207054263 4.663253183419495 0 0 0
395 2 10.911383935943755 27.898642070543115 4.663253183419125 0 0 0
397 2 14.028922439848115 27.898642070542746 4.663253183419383 0 0 0
399 2 17.14646094375124 27.898642070542856 4.663253183419278 0 0 0
400 2 20.2639994476557 27.89864207054289 4.663253183419188 0 0 0
401 2 23.38153795156013 27.89864207054284 4.663253183419303 0 0 0
398 2 26.49907645546384 27.898642070542877 4.663253183419353 0 0 0
396 2 29.616614959367286 27.89864207054278 4.663253183419293 0 0 0
394 2 32.734153463270786 27.898642070542937 4.663253183419345 0 0 0
392 2 35.85169196717444 27.89864207054273 4.663253183419263 0 0 0
391 2 38.96923047107842 27.898642070542923 4.663253183419278 0 0 0
402 3 3.117537676186366 30.59851066043594 1.5454401499149535 0 0 0
403 3 6.235076180088446 30.598510660435384 1.5454401499137145 0 0 0
404 3 9.352614683991652 30.598510660435718 1.5454401499142367 0 0 0
405 3 12.470153187896218 30.598510660435412 1.545440149913993 0 0 0
406 3 15.587691691799087 30.598510660435526 1.5454401499140489 0 0 0
407 3 18.705230195703272 30.59851066043574 1.5454401499141714 0 0 0
408 3 21.82276869960809 30.598510660435636 1.5454401499141264 0 0 0
409 3 24.940307203512127 30.598510660435622 1.5454401499140862 0 0 0
410 3 28.057845707415517 30.598510660435622 1.5454401499140564 0 0 0
411 3 31.17538421131894 30.598510660435547 1.545440149914039 0 0 0
412 3 34.29292271522275 30.598510660435572 1.54544014991411 0 0 0
413 3 37.410461219126596 30.598510660435576 1.5454401499141042 0 0 0
414 3 1.5587684242340807 33.29837925032919 1.5454401499139687 0 0 0
415 3 4.676306928137223 33.2983792503285 1.5454401499139354 0 0 0
416 3 7.79384543203885 33.29837925032824 1.5454401499140449 0 0 0
417 3 10.91138393594373 33.29837925032842 1.545440149914301 0 0 0
418 3 14.028922439848133 33.29837925032805 1.5454401499140122 0 0 0
419 3 17.146460943751215 33.298379250328225 1.545440149914057 0 0 0
420 3 20.26399944765576 33.298379250328416 1.5454401499141288 0 0 0
421 3 23.381537951560244 33.2983792503284 1.5454401499140569 0 0 0
422 3 26.49907645546386 33.298379250328374 1.5454401499140016 0 0 0
423 3 29.616614959367286 33.29837925032824 1.545440149914035 0 0 0
424 3 32.73415346327086 33.29837925032828 1.5454401499140455 0 0 0
425 3 35.85169196717469 33.298379250328416 1.5454401499139747 0 0 0
426 3 38.969230471078575 33.29837925032825 1.5454401499140427 0 0 0
427 3 3.1175376761856834 35.998247840221275 1.5454401499147692 0 0 0
428 3 6.235076180088872 35.99824784022066 1.5454401499137858 0 0 0
429 3 9.352614683991854 35.998247840221204 1.5454401499142325 0 0 0
430 3 12.470153187896047 35.998247840220806 1.545440149914075 0 0 0
431 3 15.587691691799114 35.99824784022089 1.5454401499140695 0 0 0
432 3 18.705230195703347 35.998247840221005 1.545440149914188 0 0 0
433 3 21.822768699608183 35.99824784022113 1.545440149914202 0 0 0
434 3 24.94030720351209 35.99824784022107 1.5454401499141075 0 0 0
435 3 28.057845707415485 35.998247840221026 1.5454401499140695 0 0 0
436 3 31.175384211318928 35.99824784022101 1.5454401499141297 0 0 0
437 3 34.29292271522251 35.99824784022101 1.545440149914032 0 0 0
438 3 37.410461219126596 35.998247840221055 1.5454401499140946 0 0 0
439 3 1.5587684242345599 38.69811643011324 1.5454401499137005 0 0 0
440 3 4.676306928137307 38.69811643011404 1.545440149914043 0 0 0
441 3 7.793845432039133 38.69811643011359 1.5454401499138601 0 0 0
442 3 10.911383935943645 38.69811643011389 1.5454401499142632 0 0 0