LAMMPS data file via write_data, version 21 Nov 2023, timestep = 195, units = metal

28563 atoms
3 atom types

0 935.2619819907062 xlo xhi
0 86.39580100762952 ylo yhi
0 50 zlo zhi
0 0 0 xy xz yz

Masses

1 95.94
2 32.065
3 32.065

Atoms # atomic

28563 3 1.5587421961330132 0.8999191090828299 1.5455106905923297 0 0 0
21035 3 4.67628949310238 0.8999472507190204 1.545465476586443 0 0 0
21034 3 7.793836169848771 0.8999510444058724 1.5454464692058163 0 0 0
21033 3 10.91138372941202 0.8999544173535414 1.5454365554437703 0 0 0
21032 3 14.028928769299924 0.8999563845372623 1.5454362884773856 0 0 0
21031 3 17.146469330051804 0.8999563926203222 1.5454395944202832 0 0 0
21030 3 20.26400801267676 0.8999560282432876 1.5454394565566443 0 0 0
21029 3 23.3815493766391 0.8999569999440115 1.5454359401628759 0 0 0
21028 3 26.49909594057362 0.899959576226748 1.5454373008696611 0 0 0
21027 3 3.117516724421963 3.5998099601062634 1.545463051301852 0 0 0
21026 3 6.235064827900604 3.5998181969527074 1.5454408657039518 0 0 0
21025 3 9.352613306382333 3.5998212273439365 1.5454313085332505 0 0 0
21024 3 12.4701594222383 3.599823969047851 1.5454328452857833 0 0 0
21023 3 15.587700518598904 3.5998251392415455 1.5454387571921357 0 0 0
21022 3 18.70523836833843 3.599825123465148 1.5454406830497722 0 0 0
21021 3 21.822778141059302 3.5998251467167344 1.5454372994420758 0 0 0
21020 3 24.940323097039943 3.5998259463892355 1.5454359911528093 0 0 0
21019 3 28.057872281053843 3.5998265252952852 1.5454459354291683 0 0 0
21036 3 1.5587492328309447 6.299692180423221 1.545467548347148 0 0 0
21038 3 4.676290430554155 6.299694079256519 1.5454425115472084 0 0 0
21057 3 7.793839070892515 6.299694456973537 1.5454278336607703 0 0 0
21039 3 10.911387255227512 6.299694121361623 1.5454267722672952 0 0 0
21056 3 14.028931195174916 6.299693609587578 1.5454344397099158 0 0 0
21055 3 17.14646990552165 6.299693593775362 1.5454408606925827 0 0 0
21054 3 20.264007467024513 6.299694020576112 1.5454398434582484 0 0 0
21053 3 23.38154891725304 6.299694160648473 1.5454357297612975 0 0 0
21052 3 26.499094813377017 6.299693042858372 1.5454382173211312 0 0 0
21051 3 3.117517994838582 8.999581261640316 1.5454639020734646 0 0 0
21050 3 6.235061893923515 8.999574807741647 1.5454424071076183 0 0 0
21049 3 9.352609080692172 8.999570326229444 1.5454297321170072 0 0 0
21048 3 12.470157213951394 8.999564954468582 1.5454294165877118 0 0 0
21047 3 15.587700588257157 8.999562165652206 1.5454365385405535 0 0 0
21046 3 18.70523908369081 8.999562175823145 1.5454409813448886 0 0 0
21045 3 21.822777329630856 8.999563173979327 1.5454386678956897 0 0 0
21044 3 24.94031920260482 8.999562584462003 1.545435502715377 0 0 0
21043 3 28.057863787707266 8.999558935560362 1.545438834650152 0 0 0
21042 3 1.5587389725674654 11.6994751913142 1.54552121942615 0 0 0
21041 3 4.6762845830296795 11.699455381584155 1.5454808415077184 0 0 0
21040 3 7.79382732709058 11.699449034835968 1.5454539506840421 0 0 0
21018 3 10.911376660912081 11.699439859183105 1.5454355873304693 0 0 0
21017 3 14.028926285900253 11.699433273481812 1.5454318622527925 0 0 0
21016 3 17.146470059229667 11.69943071514209 1.5454372072376605 0 0 0
21015 3 20.264008800326597 11.699431240653924 1.5454406146677857 0 0 0
20993 3 23.381547366123783 11.699432184219132 1.5454384056539003 0 0 0
20992 3 26.49908850019624 11.699430669141584 1.5454351205965937 0 0 0
20991 3 3.1174935641742216 14.399325169470654 1.5455428791893773 0 0 0
20990 3 6.235042056889362 14.399323549671134 1.5454943724036034 0 0 0
20989 3 9.352593298893279 14.399312396033936 1.5454594993157718 0 0 0
20988 3 12.470146440769945 14.399305648671099 1.545436742275533 0 0 0
20987 3 15.587697016933078 14.39930117850009 1.5454327613063499 0 0 0
20994 3 18.705239987527264 14.399299726293147 1.545438122839668 0 0 0
20986 3 21.82277859344773 14.399300337026043 1.545440936578833 0 0 0
20984 3 24.94031727534943 14.399300879280851 1.5454385053121054 0 0 0
20983 3 28.057857762299644 14.399299458369049 1.5454337959169766 0 0 0
20982 3 1.558778957167191 17.099162945708407 1.5455869329027512 0 0 0
20981 3 4.6762656726643295 17.099196434891656 1.545548568411349 0 0 0
20980 3 7.793815328714056 17.099177362944573 1.5454914622526021 0 0 0
20979 3 10.911367008969968 17.099173867792537 1.5454528300265304 0 0 0
20978 3 14.028920761713712 17.099171593918346 1.545434527053804 0 0 0
20985 3 17.146468626411266 17.09916948919183 1.545434701207352 0 0 0
20995 3 20.26400968728046 17.099168683942622 1.5454398973963306 0 0 0
20996 3 23.38154838121664 17.099169151747574 1.5454414803626997 0 0 0
20997 3 26.499087293965005 17.099169671651797 1.5454385904410246 0 0 0
21014 3 3.1175278588199924 19.799014911932783 1.545436466567861 0 0 0
21013 3 6.235023515188958 19.799033863479647 1.5455289571059865 0 0 0
21012 3 9.352587770185016 19.79903495258563 1.545469451129418 0 0 0
21011 3 12.47014409858933 19.79903801190102 1.5454415072930903 0 0 0
21010 3 15.587695214247068 19.79903828774952 1.5454335428089787 0 0 0
21009 3 18.705239427931787 19.79903728403511 1.545436896280162 0 0 0
21008 3 21.822779367604202 19.799037078695005 1.5454407685138334 0 0 0
21007 3 24.940318429320236 19.799037742137347 1.545441598145534 0 0 0
21006 3 28.05785740348638 19.7990385317015 1.545439020587479 0 0 0
21005 3 1.5587830617799172 22.49884708300506 1.5455268807774174 0 0 0
21004 3 4.676284882691218 22.49885094905474 1.545520958955352 0 0 0
21003 3 7.793828174034246 22.498890974936483 1.545472628115022 0 0 0
21002 3 10.911374189728232 22.498901093141807 1.5454466221006338 0 0 0
21001 3 14.028923049298822 22.498905248973028 1.545433318824871 0 0 0
21000 3 17.146468652481804 22.498905784123792 1.5454329794101784 0 0 0
20999 3 20.264009734494657 22.498905435344575 1.5454369690514242 0 0 0
20998 3 23.38154933970917 22.49890563049391 1.545439974489986 0 0 0
21037 3 26.49908853014099 22.49890626327992 1.545441309248849 0 0 0
21058 3 3.117534247246473 25.198742709605483 1.545472448242102 0 0 0
21059 3 6.235064882465393 25.198746753913195 1.5454606768459689 0 0 0
21060 3 9.352608843520219 25.19876402951709 1.5454439569759881 0 0 0
21119 3 12.470153939688755 25.19877280026294 1.5454328394064678 0 0 0
21118 3 15.587698365372262 25.198776325229424 1.5454306474553638 0 0 0
21117 3 18.705239315504592 25.198776455355485 1.5454334994717018 0 0 0
21116 3 21.82277860183451 25.19877550250452 1.5454360157241527 0 0 0
21115 3 24.940318596259793 25.198774574512104 1.5454380590613481 0 0 0
21114 3 28.057857994698846 25.198774116236713 1.5454391581577016 0 0 0
21113 3 1.5587622874622495 27.898629558003712 1.5454467203209088 0 0 0
21112 3 4.676302015046492 27.898626402317113 1.5454398010100538 0 0 0
21111 3 7.7938438630685 27.89863164386637 1.545432974487616 0 0 0
21110 3 10.911388915779979 27.89864253890028 1.5454307808404597 0 0 0
21109 3 14.028930973007313 27.89864947790724 1.545433507189595 0 0 0
21108 3 17.146469321917227 27.898651430176113 1.5454372697341179 0 0 0
21107 3 20.264006341590026 27.89864985616853 1.5454373611122507 0 0 0
21106 3 23.381545475964387 27.898646908106674 1.545435063729158 0 0 0
21105 3 26.499086975865918 27.898643472173315 1.5454340683440104 0 0 0
17762 2 1.5587799559533033 0.8999591795019937 4.663305040886647 0 0 0
6681 1 3.117530841901323 1.7999017554136547 3.1043808056032596 0 0 0
17761 2 4.676313813742488 0.8999637451868955 4.6632814051671305 0 0 0
6683 1 6.235071983632658 1.7999118030284424 3.104357012281743 0 0 0
17760 2 7.7938500892613956 0.8999620369369462 4.663259987826803 0 0 0
6684 1 9.352614495113567 1.7999122950638395 3.1043440412848535 0 0 0
6685 1 12.470156539515134 1.799912404702285 3.104341434828827 0 0 0
17665 2 10.911387326432575 0.899958536160129 4.663250089394445 0 0 0
6687 1 15.587697930407263 1.799912394788005 3.1043453065170437 0 0 0
17664 2 14.02892583325984 0.8999563075086418 4.6632499526078925 0 0 0
17663 2 17.146467463269566 0.8999561725153479 4.663253333420854 0 0 0
6669 1 18.705238801774918 1.7999124485017357 3.1043473013771026 0 0 0
17644 2 20.26401042620325 0.8999569081245691 4.663253203911079 0 0 0
6653 1 21.822779665902964 1.7999126348208598 3.1043444022520585 0 0 0
17566 2 23.381551101102524 0.8999566079966604 4.6632496542930495 0 0 0
6655 1 24.94032095388257 1.7999128001500528 3.104342254015475 0 0 0
17565 2 26.499087640696676 0.8999546683795708 4.663250926939012 0 0 0
6656 1 28.05786279174284 1.7999129965931038 3.104351230920414 0 0 0
6657 1 1.5587628293249975 4.499779979285856 3.1043794570556837 0 0 0
6658 1 4.676300446680249 4.499779725747454 3.1043520723029494 0 0 0
17564 2 3.117544583768973 3.599826829674002 4.663275892470534 0 0 0
6660 1 7.7938436188450755 4.499781514829707 3.104337350753271 0 0 0
17563 2 6.235080415121854 3.5998314634694637 4.663254221630467 0 0 0
17562 2 9.352616330549166 3.5998295018314397 4.663244709360347 0 0 0
6662 1 10.9113858196995 4.499781630438469 3.104335717741063 0 0 0
17561 2 12.470154123959501 3.599826747503582 4.66324639414755 0 0 0
6664 1 14.028927516784421 4.499781471414438 3.1043424415025602 0 0 0
17560 2 15.587695692641807 3.599825172853091 4.663252440184686 0 0 0
6666 1 17.146468557237526 4.499781295728824 3.104347875607575 0 0 0
6667 1 20.264009338184483 4.499781241057009 3.1043464304348056 0 0 0
17559 2 18.705239557812064 3.5998250597274875 4.663254425219811 0 0 0
6689 1 23.381550451468662 4.49978122392258 3.1043423005044235 0 0 0
17558 2 21.822781555546687 3.5998253570425423 4.663251019237993 0 0 0
6691 1 26.49909250060712 4.499781002925328 3.1043458686439274 0 0 0
17557 2 24.940319599138803 3.5998249505631916 4.6632496120258145 0 0 0
17556 2 28.057856023700282 3.5998245988217117 4.663259370575449 0 0 0
17555 2 1.5587746948500716 6.299696457642397 4.663280756871551 0 0 0
6716 1 3.1175311028978725 7.199654518349934 3.104360915366037 0 0 0
17554 2 4.6763109632760775 6.29969493372536 4.663255313356634 0 0 0
6718 1 6.235072044371045 7.19965135553624 3.104340342830993 0 0 0
17553 2 7.793847647254565 6.299695333073924 4.663241108677326 0 0 0
6720 1 9.352614376508415 7.199651477862355 3.104331908579707 0 0 0
6728 1 12.470156505070797 7.199650911722988 3.1043360338762334 0 0 0
17552 2 10.911383868879794 6.299695623043765 4.6632402074905155 0 0 0
6722 1 15.587697893573202 7.199650473681196 3.104345063051903 0 0 0
17567 2 14.028923386300646 6.2996952379881055 4.663248055589438 0 0 0
17568 2 17.14646684542087 6.299694503504035 4.663254569957783 0 0 0
6725 1 18.705238744078176 7.199650148113016 3.104348373176763 0 0 0
17569 2 20.264010745004207 6.299693736745134 4.66325359092875 0 0 0
6727 1 21.822779436966915 7.199649939685081 3.1043447698247753 0 0 0
17570 2 23.38155089402255 6.299693489963664 4.663249455218815 0 0 0
6719 1 24.940320426135973 7.199649625158923 3.104342126189966 0 0 0
17586 2 26.499087504738018 6.299694126861058 4.663251859062593 0 0 0
6710 1 28.057861851815524 7.199648985472405 3.1043490993090064 0 0 0
6699 1 1.5587572230177287 9.899529778705103 3.104389463337194 0 0 0
6692 1 4.676301517224272 9.89952400709503 3.1043668146388588 0 0 0
17585 2 3.1175405121503763 8.999558839175206 4.663276649307909 0 0 0
6694 1 7.79384241040161 9.89952237891319 3.104346136835059 0 0 0
17584 2 6.235081389469226 8.999555771964392 4.663255704539236 0 0 0
17583 2 9.352618088016905 8.999559826811419 4.6632430050808225 0 0 0
6697 1 10.91138487601928 9.89952066793467 3.1043362690746616 0 0 0
17582 2 12.470154609329523 8.99956309533874 4.663242963608286 0 0 0
6700 1 14.028926777302084 9.899519828701822 3.1043387781326426 0 0 0
17581 2 15.587694302587039 8.99956453889589 4.66325019896036 0 0 0
6701 1 17.146467977856187 9.899519286750827 3.1043459453456856 0 0 0
6702 1 20.264008701276552 9.899518896848093 3.1043476654609816 0 0 0
17580 2 18.705237674437285 8.999563552478621 4.663254714545023 0 0 0
6703 1 23.381549306300045 9.899518577657533 3.1043440369183766 0 0 0
17587 2 21.82278065335728 8.999561983254557 4.663252424596244 0 0 0
6705 1 26.499090236005912 9.899518032568325 3.104342295391729 0 0 0
17579 2 24.940320178886218 8.99956198681035 4.66324919864834 0 0 0
17577 2 28.057857803795127 8.999564339960262 4.663252430392182 0 0 0
17576 2 1.5587679518942676 11.699416813473693 4.663315680072279 0 0 0
6887 1 3.1175343243061415 12.59939260335888 3.104418280120107 0 0 0
17575 2 4.676317416242924 11.699417721486938 4.663296965287974 0 0 0
6810 1 6.235069183209846 12.599394586877171 3.1043830724460095 0 0 0
17574 2 7.793853596837476 11.699424037538627 4.663267228315107 0 0 0
6909 1 9.352612277296101 12.59939047907935 3.104355403726928 0 0 0
6911 1 12.47015494754921 12.599389076645103 3.1043396996992225 0 0 0
17573 2 10.911390562000792 11.699427891380944 4.663249038861011 0 0 0
6913 1 15.58769686540327 12.599388386964788 3.1043400624349258 0 0 0
17572 2 14.028925764581889 11.699432261604075 4.663245479956039 0 0 0
17571 2 17.146464923766775 11.699433394781003 4.663250914778656 0 0 0
6917 1 18.705237995181367 12.599387902013289 3.104346142221959 0 0 0
17551 2 20.264007894356997 11.699431878556389 4.663254372512301 0 0 0
6925 1 21.822778664726997 12.599387562026994 3.1043474612217103 0 0 0
17578 2 23.381550473088634 11.699430274144405 4.663252161573665 0 0 0
6919 1 24.940319298527616 12.599387180592606 3.104344011571036 0 0 0
17550 2 26.499090799919134 11.699430833988375 4.663248794422152 0 0 0
6920 1 28.057860317602184 12.599386411068275 3.1043405994456417 0 0 0
6921 1 1.5586969620081428 15.299218845658558 3.1044777758270463 0 0 0
6922 1 4.676285167056709 15.29926843213166 3.104428017110483 0 0 0
17539 2 3.117544495842577 14.399294276257091 4.663339870834464 0 0 0
6924 1 7.793836974822364 15.29925929983699 3.1043895980174154 0 0 0
17528 2 6.235079981590188 14.399294949943323 4.663306968244327 0 0 0
17527 2 9.352625359726746 14.399294099165937 4.663272870281732 0 0 0
6907 1 10.911381821693057 15.299257765572472 3.104355230890847 0 0 0
17526 2 12.470160818129921 14.39929830939962 4.663250180488893 0 0 0
6905 1 14.028925115370397 15.299257160017445 3.1043396117494826 0 0 0
17525 2 15.587695407330317 14.399301095738362 4.663246405816754 0 0 0
6891 1 17.14646705173657 15.299256760250788 3.104341602964992 0 0 0
6892 1 20.264008109335723 15.299256452328304 3.104347132503525 0 0 0
17524 2 18.70523528554703 14.399301405575589 4.663251853185861 0 0 0
6893 1 23.38154876327048 15.299256207994192 3.10434775954757 0 0 0
17523 2 21.82277827699817 14.399300046128118 4.663254700377502 0 0 0
6895 1 26.499089479723192 15.299255758082564 3.104343890940033 0 0 0
17522 2 24.94032077101708 14.399298837548045 4.663252242687063 0 0 0
17521 2 28.057861931168325 14.39929898077174 4.663247462557008 0 0 0
17520 2 1.5587780477130826 17.099159160485254 4.663363213498219 0 0 0
6900 1 3.1175333997013555 17.999202899536865 3.1044821840711685 0 0 0
17519 2 4.676312460209656 17.099160891270277 4.663345480080472 0 0 0
6902 1 6.235070716891025 17.999123720138204 3.104428730699924 0 0 0
17518 2 7.793862804333129 17.09916420974344 4.663307746917352 0 0 0
6903 1 9.352609520032944 17.99912537312087 3.104378533740001 0 0 0
6916 1 12.470153316195393 17.999125389242074 3.1043479765081763 0 0 0
17517 2 10.911396317515457 17.09916730779778 4.663266420879381 0 0 0
6926 1 15.587695904524601 17.99912535376664 3.104339868762117 0 0 0
17516 2 14.028928725161382 17.09916818569985 4.663248103002474 0 0 0
17515 2 17.146464976751606 17.099169371466765 4.663248392436437 0 0 0
6949 1 18.705237481268874 17.999125239541705 3.104344266530688 0 0 0
17514 2 20.26400622904833 17.099169469043908 4.663253641791278 0 0 0
6951 1 21.822778327644198 17.99912512182526 3.1043482331362315 0 0 0
17529 2 23.381548830600067 17.09916853708907 4.663255239441682 0 0 0
6953 1 24.940318900615036 17.999124921432006 3.1043480117555955 0 0 0
17530 2 26.49909106020952 17.099167325258975 4.663252309242172 0 0 0
6954 1 28.057859621423543 17.99912448161173 3.104344070747665 0 0 0
6955 1 1.5588480727730087 20.698940886135794 3.10446921531687 0 0 0
6957 1 4.676222796172792 20.698941249221015 3.1044571357838473 0 0 0
6958 1 7.793831751666708 20.698994026803252 3.104392669019812 0 0 0
17531 2 6.235088993820975 19.79904713093297 4.663323419075821 0 0 0
17547 2 9.352623952728317 19.79904101454307 4.663282475389254 0 0 0
6961 1 10.911379915575923 20.69899223142194 3.104357649771631 0 0 0
17546 2 12.470160652580041 19.799037877271964 4.663254839113324 0 0 0
6963 1 14.028924272916369 20.69899354590841 3.1043416717925054 0 0 0
17545 2 15.587696138739203 19.799037849338163 4.663247089382432 0 0 0
6948 1 17.146466712369502 20.69899398398231 3.1043410223723766 0 0 0
6956 1 20.264007904252438 20.698994082378146 3.104345629139209 0 0 0
17544 2 18.705235412713858 19.799038548754226 4.663250571549143 0 0 0
6947 1 23.38154842671323 20.698994063646595 3.104348223991255 0 0 0
17543 2 21.82277709223314 19.799038478351928 4.66325450859249 0 0 0
6929 1 26.499088821988366 20.698993834383593 3.104348173695233 0 0 0
17542 2 24.94031880321773 19.799037493107384 4.663255349927838 0 0 0
17541 2 28.05786080126873 19.79903608692855 4.6632527205129914 0 0 0
17548 2 1.5587585290178851 22.49891649973284 4.663321072123411 0 0 0
6934 1 3.11753614430156 23.398855809420013 3.1044107921605084 0 0 0
17540 2 4.676317504893248 22.498912598399443 4.66331536575054 0 0 0
6937 1 6.235070789197342 23.39884630925331 3.1043873869877205 0 0 0
17538 2 7.793856251330658 22.49891276235217 4.663288556616461 0 0 0
6945 1 9.352612443435456 23.398859241073254 3.1043611046790236 0 0 0
6939 1 12.470154868850933 23.398861801760788 3.1043428399689947 0 0 0
17537 2 10.91139324484672 22.498909116802434 4.663260128169532 0 0 0
6941 1 15.587696673951873 23.398862902833518 3.104337880170451 0 0 0
17536 2 14.028928609137706 22.498907490825598 4.663246818928456 0 0 0
17535 2 17.146465963273236 22.498907841375228 4.663246594568984 0 0 0
6944 1 18.705237748060345 23.398863349724582 3.1043410183723092 0 0 0
17534 2 20.264006308758006 22.498908304579402 4.663250656475835 0 0 0
6889 1 21.822778115376806 23.398863499673734 3.1043446583414913 0 0 0
17533 2 23.38154709641077 22.498908046741 4.663253700384892 0 0 0
6888 1 24.940318254627392 23.39886335711315 3.1043471898098307 0 0 0
17532 2 26.49908828777216 22.498907047612306 4.663255023704785 0 0 0
6867 1 28.057858645466887 23.398862984669375 3.1043477806689173 0 0 0
6830 1 1.5587678387489405 26.098724653655033 3.1043682404961075 0 0 0
6831 1 4.676304879035059 26.098724266728055 3.1043641544645486 0 0 0
17549 2 3.117538315002296 25.198790036337353 4.663288583595451 0 0 0
6833 1 7.79384270351441 26.09872537060819 3.104351216709 0 0 0
17588 2 6.235080617689373 25.198779547630515 4.6632735490045985 0 0 0
17589 2 9.352621255839138 25.198780322823772 4.663257378439421 0 0 0
6836 1 10.911385615561022 26.09873054893944 3.104340912250301 0 0 0
17590 2 12.470159166746617 25.198777145605884 4.66324622189726 0 0 0
6846 1 14.028927118582539 26.09873240028418 3.104337154841167 0 0 0
17642 2 15.587696879804504 25.198775753663583 4.663244145075096 0 0 0
6840 1 17.146467895061438 26.098733173563136 3.1043392915565793 0 0 0
6841 1 20.264007981492465 26.098733543546757 3.104341672215885 0 0 0
17641 2 18.705236785486328 25.198776346994105 4.663247091925393 0 0 0
6842 1 23.38154776015679 26.098733462507457 3.104342731096933 0 0 0
17640 2 21.822777246289405 25.198777486815334 4.663249680199522 0 0 0
6844 1 26.499088036230983 26.09873274206762 3.1043444968277134 0 0 0
17639 2 24.94031704272348 25.198778090608627 4.66325172452704 0 0 0
17638 2 28.05785858490176 25.198777749440072 4.663252819063933 0 0 0
17637 2 1.5587699154220864 27.898649317028717 4.663260024064775 0 0 0
17643 2 26.49908818099294 27.89864819355508 4.663247684879569 0 0 0
17636 2 4.6763102269311725 27.898651473725334 4.663253192438469 0 0 0
17633 2 23.38154870324596 27.898646619772112 4.663248614349073 0 0 0
17635 2 7.793847339615205 27.898648127504806 4.663246073940448 0 0 0
17632 2 20.264009183074887 27.898643809754866 4.663250927021286 0 0 0
17630 2 17.146467437294856 27.898641592659132 4.663250759282702 0 0 0
17631 2 10.911386430449276 27.89864582070155 4.6632440473408705 0 0 0
17629 2 14.028925907547299 27.898642260606767 4.663246920900089 0 0 0
21158 3 4.572109489934145e-05 19.799018880683267 1.5455503266933237 1 0 0
11673 2 5.2880576624166e-06 3.59983390555695 4.663306145544907 1 0 0
21180 3 8.821204138447825e-06 14.39931745105843 1.5454328769312948 1 0 0
11747 2 4.314309927261046e-06 8.999558898288626 4.663300455512194 1 0 0
6528 1 1.8270716889643252e-06 23.398846464250656 3.1043940048543575 1 0 0
21219 3 4.6052278052541975e-06 25.19874753742645 1.5454670224105453 1 0 0
6558 1 1.072652089123943e-06 17.999121883088705 3.104465126760563 1 0 0
6636 1 6.235075796924753 28.79859797766861 3.104336308689135 0 0 0
6633 1 3.1175361503359644 28.79859775742509 3.104343796768837 0 0 0
6638 1 9.35261620758172 28.79859907768886 3.104335091717387 0 0 0
21104 3 3.1175284871505426 30.59851109238299 1.5454329692857143 0 0 0
21103 3 6.235074992960233 30.59851059132056 1.5454247142110547 0 0 0
21120 3 9.352622928970112 30.598515043417006 1.5454282313990848 0 0 0
21122 3 12.470167122926549 30.598523698172237 1.5454400484526514 0 0 0
21141 3 15.587702669606404 30.598526848398286 1.5454502665487397 0 0 0
21123 3 18.705235184288522 30.598526571846026 1.5454509432880519 0 0 0
21140 3 21.822770864179006 30.598524457407102 1.545443231441081 0 0 0
21139 3 24.940312487820478 30.598518576538368 1.5454343821349685 0 0 0
21138 3 28.057856032535838 30.598514727031628 1.5454293418706806 0 0 0
21137 3 1.5587522861463645 33.29839321190422 1.5454503672966202 0 0 0
20822 3 4.676299149135419 33.29839242626946 1.5454335731477153 0 0 0
20821 3 7.79385120795835 33.29839115173671 1.5454321647142655 0 0 0
20820 3 10.911400556479133 33.2983941918417 1.5454470616724179 0 0 0
20827 3 14.028942724075248 33.2984035906322 1.5454661379410055 0 0 0
20819 3 17.146468677804254 33.298400879911014 1.5454725541038372 0 0 0
20817 3 20.26399607125766 33.298404356087076 1.545465858426019 0 0 0
20816 3 23.38153792641618 33.29839637902091 1.545450749550601 0 0 0
20815 3 26.49908126900478 33.29839211101712 1.545436960782108 0 0 0
20814 3 3.117521065840843 35.99827136228417 1.5454587140271532 0 0 0
20813 3 6.235073656485674 35.99826434468598 1.5454469267987834 0 0 0
20812 3 9.352627310941378 35.99826214572766 1.5454532770199703 0 0 0
20811 3 12.470177278681948 35.9982639302717 1.5454749087238109 0 0 0
20818 3 15.587726944742842 35.99828711671543 1.5455117026372367 0 0 0
20828 3 18.705213118422623 35.998288717167874 1.5455116986807855 0 0 0
20829 3 21.822763801728357 35.998268264941565 1.5454785662781798 0 0 0
20830 3 24.94030906753639 35.998267914629956 1.545460105189677 0 0 0
20847 3 28.057852808066844 35.998266308737584 1.5454456659726008 0 0 0
20846 3 1.5587331073762598 38.6981538903911 1.5455051435463334 0 0 0
20845 3 4.676292524314869 38.698131593448636 1.5454671179754966 0 0 0
20844 3 7.793848315225433 38.69812641951953 1.5454589705315975 0 0 0
20843 3 10.911406179680776 38.698122653047264 1.545469270382906 0 0 0
20842 3 14.028972573543303 38.698124960358996 1.545509668087008 0 0 0
20841 3 17.14647163420398 38.69811989951004 1.5453998966059614 0 0 0
20840 3 20.2639721370401 38.69812976165455 1.5455163303685877 0 0 0
20839 3 23.381535821272102 38.69813102030421 1.545484357453872 0 0 0
20838 3 26.499086622196447 38.69814165809906 1.5454719776796237 0 0 0
20837 3 3.1174910215075555 41.39799410903698 1.5454986413964018 0 0 0
20836 3 6.235061609804294 41.397987885450036 1.5454620168205435 0 0 0
20835 3 9.352619224156225 41.397984375942194 1.5454589858281964 0 0 0
20834 3 12.470169935448304 41.39797856238609 1.5454698735204553 0 0 0
20833 3 15.587717922658205 41.39794565434167 1.5455075437599353 0 0 0
20832 3 18.705229515995963 41.39794811425771 1.5455132915207233 0 0 0
20831 3 21.822777879693447 41.39798405352897 1.5454894957602003 0 0 0
20870 3 24.94032535663836 41.39799605696748 1.5454891475824677 0 0 0
20891 3 28.057881085721206 41.398025675120735 1.545506367053748 0 0 0
20892 3 1.5587395276480664 44.09781982919024 1.545502297844491 0 0 0
20893 3 4.67629146316079 44.09784833858002 1.5454592905375737 0 0 0
20952 3 7.793842799925874 44.09784880755046 1.5454479916539623 0 0 0
20951 3 10.911392867927463 44.097845688674134 1.5454500750966522 0 0 0
20950 3 14.028939883079197 44.0978345892447 1.5454619189809211 0 0 0
20949 3 17.146474157196423 44.09783342527139 1.5454732764018058 0 0 0
20948 3 20.264010725565623 44.097834929382316 1.54547567778407 0 0 0
20947 3 23.381563536986945 44.097847705890054 1.5454801437449774 0 0 0
20946 3 26.499130432803213 44.09786071021465 1.5455101884212674 0 0 0
20945 3 3.1175162287303415 46.7977092153779 1.5454576689858235 0 0 0
20944 3 6.2350677728588675 46.79771633160191 1.5454384629499964 0 0 0
20943 3 9.352618016506124 46.797716457049155 1.5454338306508828 0 0 0
20942 3 12.470164138634887 46.79771267012651 1.5454401553907693 0 0 0
20941 3 15.587703083603566 46.79770938865024 1.5454484037417164 0 0 0
20940 3 18.705242141198784 46.7977078216395 1.545452535434506 0 0 0
20939 3 21.822785189951993 46.79770867534776 1.5454570685247675 0 0 0
20938 3 24.940332436622498 46.7977111155201 1.5454682900592904 0 0 0
20937 3 28.057882948294303 46.79768531058868 1.5455082997696508 0 0 0
20936 3 1.5587469404620737 49.497588594091646 1.5454595929948811 0 0 0
20953 3 4.676292635220497 49.49758802500607 1.5454356181211064 0 0 0
20955 3 7.79384360623147 49.49758989289279 1.5454245097508608 0 0 0
20974 3 10.911391030595261 49.49758887453253 1.545427588951305 0 0 0
20956 3 14.028931407048045 49.4975869049684 1.5454344946121554 0 0 0
20973 3 17.14646984134745 49.49758466774488 1.545436886946815 0 0 0
20972 3 20.264011871881234 49.497582850756714 1.5454377732150224 0 0 0
20971 3 23.381556435825292 49.497580268940716 1.5454442056743327 0 0 0
20970 3 26.499104500626196 49.497571881357075 1.545459213778864 0 0 0
20969 3 3.1175183840324383 52.19746671092213 1.5454456850480602 0 0 0
20968 3 6.235067007973825 52.19746609648255 1.5454269216702907 0 0 0
20967 3 9.352616940043681 52.197464283389664 1.5454237688987822 0 0 0
20966 3 12.47016070708363 52.19746237806561 1.545430218252934 0 0 0
20965 3 15.587699154527566 52.1974612489775 1.5454341279974888 0 0 0
20964 3 18.705238491265526 52.19746014742646 1.5454326171589663 0 0 0
20963 3 21.822780564936966 52.19745692475508 1.5454317773833284 0 0 0
20962 3 24.94032497009187 52.19745097016736 1.5454357778503391 0 0 0
20961 3 28.05786916259685 52.197447057565974 1.5454470347380183 0 0 0
20960 3 1.5587406978407528 54.89734316259803 1.545470854567692 0 0 0
20959 3 4.676288374803282 54.89734384796569 1.5454456666084189 0 0 0
20958 3 7.793838781996349 54.897339216991085 1.5454308390871403 0 0 0
20957 3 10.911387429442815 54.897335057306385 1.5454303087174295 0 0 0
20935 3 14.028929630089099 54.89733295416541 1.5454356967245615 0 0 0
20954 3 17.14646829686267 54.897332886670725 1.5454371216485734 0 0 0
20934 3 20.26400752973515 54.897332011587906 1.5454340089660663 0 0 0
20912 3 23.381548836812716 54.89732880155902 1.5454298487293683 0 0 0
20910 3 26.499093356707302 54.89732578901587 1.5454296757531778 0 0 0
18053 2 3.1175423153291306 30.59851345802804 4.663246104194129 0 0 0
18052 2 6.235077527126807 30.598514229117843 4.663237899861426 0 0 0
18067 2 9.352613317511032 30.59851134219854 4.663241484832283 0 0 0
18068 2 12.470153900278676 30.59850985264107 4.663253258920106 0 0 0
18069 2 15.587696456383625 30.59850745919099 4.663263821744585 0 0 0
18070 2 18.705240298946503 30.598508674466007 4.663264555937389 0 0 0
18086 2 21.822781047620644 30.59851245666632 4.663256591208611 0 0 0
18085 2 24.940321032531116 30.598514162191325 4.663247917089095 0 0 0
18084 2 28.057859511716693 30.598516378122593 4.6632428266318 0 0 0
6453 1 1.5587651065520591 31.49847081144758 3.104348617166597 0 0 0
18083 2 1.5587731394510425 33.298376637299015 4.663263440798393 0 0 0
6475 1 4.676305539906145 31.498470551333202 3.104333442269873 0 0 0
18082 2 4.6763092069640795 33.29837786567376 4.6632465475827045 0 0 0
6477 1 7.793847188085781 31.4984698682232 3.1043315955731194 0 0 0
18081 2 7.793844274719169 33.29837636347608 4.66324540597695 0 0 0
6479 1 10.91138900405487 31.49847127781122 3.1043434431746095 0 0 0
18080 2 10.911381516013945 33.298375400260994 4.663260548043948 0 0 0
6481 1 14.028930679869557 31.49847606303498 3.1043586304330613 0 0 0
18087 2 14.028927594764125 33.29837847653372 4.663279170629915 0 0 0
6483 1 17.146468643143518 31.498475286671237 3.104365982091629 0 0 0
18079 2 17.14646935683059 33.2983753331197 4.663288619194174 0 0 0
6484 1 20.26400617786034 31.49847719029109 3.1043593646303154 0 0 0
18077 2 20.264009170748977 33.29837958399222 4.663278991199232 0 0 0
6486 1 23.381546677078912 31.49847400267409 3.1043480994412747 0 0 0
18076 2 23.381553660989667 33.29837820693519 4.663264318825295 0 0 0
6487 1 26.49908735446849 31.49847276304632 3.104338444880293 0 0 0
18075 2 26.499092876066676 33.29838031488377 4.663250342904526 0 0 0
6488 1 3.117532970418096 34.19834383345085 3.10435170172266 0 0 0
18074 2 3.1175389916197367 35.99824687917244 4.6632714942741975 0 0 0
6490 1 6.2350762041448275 34.19834044207193 3.104341506441887 0 0 0
18073 2 6.235077806719724 35.99824349760283 4.663260316310417 0 0 0
6482 1 9.352619338477796 34.198340330151396 3.1043495382962187 0 0 0
18072 2 9.352613267574144 35.99824548481877 4.663266718585167 0 0 0
6462 1 12.470162046850922 34.198342789524524 3.104370812837818 0 0 0
18071 2 12.470149402490016 35.998245248599346 4.663291191192731 0 0 0
6455 1 15.587707954831327 34.198350257225414 3.104387294664094 0 0 0
17972 2 15.587701659929163 35.99824450907838 4.663306215169494 0 0 0
6457 1 18.70522996916591 34.198350616568035 3.104386140920745 0 0 0
18049 2 18.70523617772063 35.99824332937142 4.663306172345643 0 0 0
6459 1 21.82277517231193 34.19834464005401 3.1043721220972325 0 0 0
17971 2 21.822786324348336 35.998244339116226 4.663294903965983 0 0 0
6461 1 24.940316862847556 34.19834380605041 3.1043548495986295 0 0 0