LAMMPS data file via write_data, version 2 Aug 2023, timestep = 529, units = metal

28576 atoms
3 atom types

0 935.2624283003739 xlo xhi
0 86.39583243292209 ylo yhi
0 50 zlo zhi
0 0 0 xy xz yz

Masses

1 95.94
2 32.065
3 32.065

Atoms # atomic

1 3 1.5587698861102486 0.8999566337517063 1.545439989679682 0 0 0
2 3 4.676311313778062 0.8999566337518629 1.545439989679843 0 0 0
3 3 7.793852741446969 0.899956633751787 1.5454399896800042 0 0 0
4 3 10.911394169115301 0.8999566337517982 1.5454399896798954 0 0 0
5 3 14.028935596783079 0.8999566337516933 1.54543998967994 0 0 0
6 3 17.146477024450913 0.8999566337517079 1.5454399896799667 0 0 0
7 3 20.26401845211895 0.8999566337517215 1.5454399896799536 0 0 0
8 3 23.38155987978674 0.8999566337516915 1.5454399896799036 0 0 0
9 3 26.49910130745466 0.8999566337516971 1.5454399896799098 0 0 0
10 3 3.117540599944193 3.599826397280629 1.5454399896798243 0 0 0
11 3 6.23508202761252 3.599826397280667 1.5454399896799589 0 0 0
12 3 9.352623455281128 3.5998263972806286 1.5454399896799316 0 0 0
13 3 12.470164882949131 3.5998263972805873 1.5454399896799065 0 0 0
14 3 15.587706310617062 3.59982639728062 1.5454399896799234 0 0 0
15 3 18.705247738284957 3.5998263972805704 1.5454399896798885 0 0 0
16 3 21.822789165952788 3.5998263972805993 1.5454399896798967 0 0 0
17 3 24.940330593620693 3.599826397280603 1.5454399896799333 0 0 0
18 3 28.05787202128861 3.5998263972805846 1.5454399896799242 0 0 0
19 3 1.5587698861102837 6.2996961608093445 1.5454399896796904 0 0 0
20 3 4.676311313778072 6.29969616080944 1.5454399896797992 0 0 0
21 3 7.793852741446958 6.299696160809444 1.5454399896799702 0 0 0
22 3 10.911394169115317 6.299696160809392 1.5454399896798812 0 0 0
23 3 14.028935596783093 6.299696160809378 1.5454399896798727 0 0 0
24 3 17.14647702445095 6.299696160809433 1.545439989679914 0 0 0
25 3 20.26401845211892 6.299696160809416 1.5454399896799051 0 0 0
26 3 23.38155987978674 6.299696160809396 1.5454399896798854 0 0 0
27 3 26.499101307454648 6.299696160809386 1.545439989679865 0 0 0
28 3 3.1175405999442245 8.999565924338253 1.54543998967978 0 0 0
29 3 6.235082027612511 8.999565924338288 1.5454399896799644 0 0 0
30 3 9.352623455281151 8.99956592433825 1.5454399896799105 0 0 0
31 3 12.470164882949163 8.9995659243382 1.5454399896798923 0 0 0
32 3 15.587706310617017 8.999565924338224 1.5454399896798938 0 0 0
33 3 18.705247738284957 8.999565924338194 1.5454399896798832 0 0 0
34 3 21.822789165952788 8.999565924338208 1.545439989679895 0 0 0
35 3 24.940330593620693 8.999565924338201 1.5454399896799111 0 0 0
36 3 28.057872021288663 8.999565924338235 1.545439989679922 0 0 0
37 3 1.558769886110243 11.699435687867012 1.5454399896797222 0 0 0
38 3 4.67631131377804 11.699435687867075 1.5454399896798137 0 0 0
39 3 7.793852741446958 11.69943568786708 1.5454399896799769 0 0 0
40 3 10.911394169115315 11.699435687867053 1.5454399896798767 0 0 0
41 3 14.028935596783082 11.69943568786704 1.5454399896798847 0 0 0
42 3 17.146477024450935 11.69943568786704 1.545439989679902 0 0 0
43 3 20.26401845211895 11.69943568786704 1.5454399896799242 0 0 0
44 3 23.38155987978674 11.69943568786702 1.5454399896798925 0 0 0
45 3 26.499101307454648 11.69943568786702 1.5454399896798816 0 0 0
46 3 3.1175405999442014 14.39930545139591 1.5454399896798012 0 0 0
47 3 6.235082027612504 14.399305451395936 1.5454399896799607 0 0 0
48 3 9.352623455281163 14.399305451395902 1.5454399896799353 0 0 0
49 3 12.470164882949131 14.399305451395861 1.5454399896799105 0 0 0
50 3 15.587706310617072 14.399305451395861 1.5454399896799234 0 0 0
51 3 18.705247738284957 14.399305451395813 1.545439989679892 0 0 0
52 3 21.822789165952788 14.399305451395854 1.545439989679901 0 0 0
53 3 24.940330593620693 14.399305451395854 1.5454399896799382 0 0 0
54 3 28.05787202128861 14.399305451395813 1.5454399896799051 0 0 0
55 3 1.5587698861102897 17.099175214924596 1.5454399896797117 0 0 0
56 3 4.676311313778072 17.099175214924678 1.5454399896798119 0 0 0
57 3 7.793852741446958 17.099175214924692 1.5454399896799884 0 0 0
58 3 10.911394169115315 17.099175214924635 1.5454399896798976 0 0 0
59 3 14.028935596783072 17.09917521492461 1.5454399896798814 0 0 0
60 3 17.14647702445095 17.099175214924635 1.5454399896799205 0 0 0
61 3 20.26401845211895 17.099175214924617 1.5454399896799313 0 0 0
62 3 23.38155987978675 17.099175214924635 1.5454399896798814 0 0 0
63 3 26.499101307454644 17.099175214924596 1.5454399896798854 0 0 0
64 3 3.1175405999442263 19.799044978453512 1.545439989679784 0 0 0
65 3 6.23508202761252 19.79904497845352 1.545439989679954 0 0 0
66 3 9.352623455281183 19.799044978453484 1.5454399896799076 0 0 0
67 3 12.470164882949138 19.79904497845344 1.5454399896798858 0 0 0
68 3 15.587706310617053 19.799044978453445 1.5454399896798945 0 0 0
69 3 18.705247738284957 19.799044978453438 1.5454399896798794 0 0 0
70 3 21.822789165952734 19.799044978453452 1.5454399896798874 0 0 0
71 3 24.940330593620697 19.799044978453452 1.5454399896799165 0 0 0
72 3 28.05787202128861 19.79904497845343 1.5454399896798696 0 0 0
73 3 1.5587698861102204 22.49891474198224 1.5454399896797055 0 0 0
74 3 4.676311313778012 22.498914741982322 1.5454399896798015 0 0 0
75 3 7.793852741446939 22.498914741982347 1.5454399896799664 0 0 0
76 3 10.911394169115304 22.498914741982265 1.5454399896798892 0 0 0
77 3 14.02893559678308 22.49891474198223 1.54543998967987 0 0 0
78 3 17.1464770244509 22.49891474198228 1.5454399896799067 0 0 0
79 3 20.26401845211895 22.498914741982265 1.545439989679898 0 0 0
80 3 23.381559879786735 22.498914741982265 1.545439989679876 0 0 0
81 3 26.499101307454655 22.498914741982254 1.5454399896798696 0 0 0
82 3 3.1175405999442107 25.19878450551118 1.545439989679822 0 0 0
83 3 6.235082027612509 25.198784505511213 1.5454399896799662 0 0 0
84 3 9.35262345528115 25.198784505511146 1.5454399896799305 0 0 0
85 3 12.470164882949147 25.198784505511117 1.545439989679904 0 0 0
86 3 15.587706310617017 25.198784505511117 1.5454399896799162 0 0 0
87 3 18.705247738284957 25.198784505511064 1.5454399896798767 0 0 0
88 3 21.822789165952788 25.198784505511103 1.5454399896798794 0 0 0
89 3 24.940330593620693 25.198784505511156 1.5454399896799127 0 0 0
90 3 28.05787202128861 25.198784505511103 1.545439989679888 0 0 0
91 3 1.5587698861102341 27.898654269039852 1.5454399896797257 0 0 0
92 3 4.676311313777998 27.898654269039948 1.5454399896798188 0 0 0
93 3 7.793852741446947 27.898654269039994 1.5454399896799618 0 0 0
94 3 10.911394169115287 27.898654269039884 1.5454399896798765 0 0 0
95 3 14.028935596783064 27.898654269039895 1.545439989679869 0 0 0
96 3 17.14647702445095 27.89865426903991 1.5454399896799054 0 0 0
97 3 20.26401845211895 27.8986542690399 1.5454399896798758 0 0 0
98 3 23.38155987978672 27.8986542690399 1.5454399896798732 0 0 0
99 3 26.499101307454684 27.89865426903991 1.5454399896798596 0 0 0
100 2 1.5587698861102266 0.8999566337517165 4.66325334365361 0 0 0
101 2 4.676311313778036 0.8999566337518744 4.663253343653521 0 0 0
102 1 3.1175405999438572 1.7999131666404584 3.104346666666706 0 0 0
103 2 7.7938527414469565 0.8999566337517863 4.663253343653345 0 0 0
104 1 6.235082027612445 1.7999131666403334 3.1043466666666664 0 0 0
105 1 9.352623455281194 1.7999131666404373 3.1043466666666677 0 0 0
106 2 10.911394169115301 0.8999566337517909 4.6632533436534525 0 0 0
107 1 12.47016488294923 1.7999131666404722 3.1043466666666637 0 0 0
108 2 14.02893559678308 0.8999566337516924 4.663253343653405 0 0 0
109 1 15.587706310617065 1.7999131666404413 3.1043466666666664 0 0 0
110 2 17.14647702445095 0.8999566337517237 4.663253343653384 0 0 0
111 2 20.26401845211895 0.8999566337517237 4.663253343653388 0 0 0
112 1 18.705247738284957 1.799913166640444 3.104346666666669 0 0 0
113 2 23.38155987978674 0.8999566337516975 4.6632533436534285 0 0 0
114 1 21.822789165952766 1.7999131666404593 3.1043466666666664 0 0 0
115 2 26.499101307454616 0.8999566337516964 4.663253343653429 0 0 0
116 1 24.940330593620647 1.7999131666404353 3.104346666666658 0 0 0
117 1 28.057872021288663 1.7999131666404389 3.1043466666666744 0 0 0
118 1 1.5587698861104726 4.499782930169266 3.104346666666697 0 0 0
119 1 4.676311313778353 4.499782930169278 3.1043466666666744 0 0 0
120 2 3.1175405999442014 3.5998263972806215 4.663253343653503 0 0 0
121 1 7.793852741446898 4.499782930169197 3.1043466666666477 0 0 0
122 2 6.235082027612511 3.599826397280663 4.663253343653396 0 0 0
123 2 9.352623455281126 3.5998263972806335 4.663253343653426 0 0 0
124 1 10.911394169115203 4.49978293016929 3.1043466666666637 0 0 0
125 2 12.470164882949119 3.5998263972805926 4.663253343653435 0 0 0
126 1 14.028935596783093 4.49978293016931 3.104346666666657 0 0 0
127 2 15.587706310617017 3.599826397280613 4.6632533436534205 0 0 0
128 1 17.14647702445092 4.499782930169293 3.104346666666672 0 0 0
129 1 20.264018452118986 4.499782930169268 3.104346666666663 0 0 0
130 2 18.705247738284957 3.599826397280571 4.663253343653449 0 0 0
131 1 23.38155987978676 4.4997829301693235 3.1043466666666797 0 0 0
132 2 21.822789165952788 3.599826397280591 4.66325334365345 0 0 0
133 1 26.499101307454616 4.499782930169293 3.1043466666666695 0 0 0
134 2 24.940330593620693 3.599826397280605 4.663253343653421 0 0 0
135 2 28.05787202128861 3.5998263972805855 4.663253343653447 0 0 0
136 2 1.558769886110255 6.299696160809351 4.66325334365364 0 0 0
137 2 4.676311313778053 6.299696160809433 4.663253343653548 0 0 0
138 1 3.1175405999439625 7.199652693698084 3.1043466666666863 0 0 0
139 2 7.793852741446958 6.299696160809444 4.663253343653394 0 0 0
140 1 6.235082027612412 7.19965269369794 3.1043466666666606 0 0 0
141 1 9.352623455281194 7.1996526936980505 3.1043466666666637 0 0 0
142 2 10.911394169115306 6.299696160809392 4.66325334365346 0 0 0
143 1 12.470164882949154 7.199652693698102 3.1043466666666726 0 0 0
144 2 14.02893559678311 6.299696160809389 4.663253343653472 0 0 0
145 1 15.587706310617072 7.199652693698088 3.104346666666662 0 0 0
146 2 17.14647702445095 6.2996961608094235 4.663253343653428 0 0 0
147 2 20.264018452118943 6.299696160809416 4.66325334365344 0 0 0
148 1 18.705247738284942 7.199652693698106 3.10434666666667 0 0 0
149 2 23.38155987978674 6.299696160809392 4.663253343653462 0 0 0
150 1 21.822789165952766 7.199652693698105 3.104346666666683 0 0 0
151 2 26.499101307454655 6.299696160809375 4.663253343653495 0 0 0
152 1 24.940330593620693 7.199652693698088 3.10434666666667 0 0 0
153 1 28.057872021288695 7.199652693698082 3.1043466666666664 0 0 0
154 1 1.5587698861103974 9.899522457226876 3.104346666666697 0 0 0
155 1 4.676311313778315 9.899522457226928 3.104346666666663 0 0 0
156 2 3.1175405999442294 8.999565924338254 4.663253343653535 0 0 0
157 1 7.793852741446898 9.8995224572268 3.1043466666666726 0 0 0
158 2 6.235082027612493 8.999565924338288 4.663253343653393 0 0 0
159 2 9.352623455281163 8.999565924338246 4.6632533436534365 0 0 0
160 1 10.911394169115242 9.899522457226919 3.1043466666666664 0 0 0
161 2 12.470164882949138 8.999565924338198 4.663253343653451 0 0 0
162 1 14.02893559678308 9.899522457226928 3.1043466666666815 0 0 0
163 2 15.587706310617035 8.999565924338228 4.663253343653447 0 0 0
164 1 17.146477024450924 9.899522457226903 3.1043466666666553 0 0 0
165 1 20.264018452118957 9.899522457226896 3.104346666666682 0 0 0
166 2 18.705247738284893 8.99956592433819 4.6632533436534604 0 0 0
167 1 23.38155987978676 9.89952245722694 3.1043466666666744 0 0 0
168 2 21.82278916595278 8.999565924338208 4.663253343653461 0 0 0
169 1 26.499101307454758 9.899522457226919 3.1043466666666655 0 0 0
170 2 24.940330593620693 8.99956592433819 4.663253343653441 0 0 0
171 2 28.05787202128861 8.999565924338224 4.663253343653446 0 0 0
172 2 1.5587698861102215 11.699435687867012 4.6632533436536 0 0 0
173 2 4.676311313778015 11.69943568786706 4.663253343653533 0 0 0
174 1 3.117540599943953 12.59939222075577 3.1043466666666926 0 0 0
175 2 7.793852741446958 11.699435687867108 4.663253343653388 0 0 0
176 1 6.235082027612417 12.59939222075557 3.1043466666666464 0 0 0
177 1 9.3526234552812 12.599392220755696 3.1043466666666695 0 0 0
178 2 10.911394169115317 11.699435687867046 4.663253343653468 0 0 0
179 1 12.470164882949192 12.599392220755757 3.104346666666672 0 0 0
180 2 14.02893559678308 11.699435687867032 4.663253343653469 0 0 0
181 1 15.587706310617053 12.59939222075575 3.104346666666678 0 0 0
182 2 17.14647702445095 11.69943568786704 4.663253343653425 0 0 0
183 2 20.264018452118915 11.699435687867046 4.663253343653436 0 0 0
184 1 18.705247738284957 12.599392220755709 3.1043466666666424 0 0 0
185 2 23.38155987978674 11.699435687867012 4.663253343653483 0 0 0
186 1 21.82278916595273 12.599392220755776 3.1043466666667006 0 0 0
187 2 26.499101307454644 11.699435687867005 4.663253343653472 0 0 0
188 1 24.940330593620704 12.599392220755709 3.1043466666666806 0 0 0
189 1 28.05787202128865 12.599392220755742 3.1043466666666686 0 0 0
190 1 1.5587698861105266 15.299261984284618 3.104346666666719 0 0 0
191 1 4.67631131377837 15.29926198428459 3.104346666666664 0 0 0
192 2 3.1175405999442107 14.39930545139591 4.6632533436535155 0 0 0
193 1 7.793852741446913 15.2992619842845 3.1043466666666495 0 0 0
194 2 6.235082027612492 14.399305451395916 4.663253343653387 0 0 0
195 2 9.352623455281163 14.399305451395902 4.663253343653427 0 0 0
196 1 10.911394169115226 15.299261984284596 3.1043466666666664 0 0 0
197 2 12.470164882949138 14.399305451395861 4.663253343653434 0 0 0
198 1 14.02893559678312 15.29926198428457 3.1043466666666664 0 0 0
199 2 15.587706310617072 14.399305451395874 4.663253343653425 0 0 0
200 1 17.14647702445096 15.299261984284563 3.1043466666666686 0 0 0
201 1 20.26401845211891 15.299261984284572 3.104346666666671 0 0 0
202 2 18.705247738284957 14.399305451395813 4.663253343653438 0 0 0
203 1 23.38155987978676 15.299261984284584 3.1043466666666695 0 0 0
204 2 21.822789165952788 14.399305451395861 4.663253343653462 0 0 0
205 1 26.499101307454616 15.299261984284604 3.1043466666666584 0 0 0
206 2 24.940330593620693 14.399305451395833 4.66325334365342 0 0 0
207 2 28.05787202128861 14.399305451395813 4.663253343653451 0 0 0
208 2 1.5587698861102686 17.099175214924625 4.6632533436536185 0 0 0
209 2 4.676311313778062 17.099175214924678 4.663253343653529 0 0 0
210 1 3.1175405999439576 17.999131747813415 3.10434666666668 0 0 0
211 2 7.793852741446958 17.099175214924685 4.663253343653378 0 0 0
212 1 6.235082027612411 17.999131747813262 3.104346666666663 0 0 0
213 1 9.352623455281199 17.999131747813337 3.1043466666666717 0 0 0
214 2 10.911394169115317 17.099175214924657 4.663253343653458 0 0 0
215 1 12.470164882949167 17.999131747813394 3.1043466666666664 0 0 0
216 2 14.028935596783073 17.09917521492461 4.663253343653456 0 0 0
217 1 15.587706310617033 17.999131747813372 3.1043466666666695 0 0 0
218 2 17.14647702445095 17.099175214924625 4.663253343653412 0 0 0
219 2 20.26401845211895 17.099175214924625 4.663253343653416 0 0 0
220 1 18.705247738284957 17.999131747813408 3.104346666666669 0 0 0
221 2 23.38155987978674 17.099175214924617 4.663253343653472 0 0 0
222 1 21.822789165952788 17.99913174781338 3.1043466666666744 0 0 0
223 2 26.499101307454648 17.09917521492459 4.663253343653481 0 0 0
224 1 24.940330593620693 17.999131747813376 3.1043466666666744 0 0 0
225 1 28.057872021288684 17.999131747813415 3.1043466666666544 0 0 0
226 1 1.5587698861103856 20.699001511342217 3.104346666666717 0 0 0
227 1 4.676311313778337 20.699001511342207 3.1043466666666664 0 0 0
228 2 3.1175405999442294 19.799044978453505 4.663253343653526 0 0 0
229 1 7.793852741446911 20.699001511342118 3.1043466666666455 0 0 0
230 2 6.235082027612502 19.79904497845353 4.663253343653402 0 0 0
231 2 9.352623455281146 19.799044978453498 4.663253343653456 0 0 0
232 1 10.911394169115244 20.699001511342207 3.1043466666666775 0 0 0
233 2 12.470164882949145 19.799044978453406 4.663253343653456 0 0 0
234 1 14.028935596783084 20.699001511342214 3.104346666666668 0 0 0
235 2 15.587706310617035 19.799044978453445 4.663253343653445 0 0 0
236 1 17.14647702445096 20.699001511342185 3.10434666666667 0 0 0
237 1 20.264018452118957 20.699001511342193 3.104346666666689 0 0 0
238 2 18.705247738284957 19.799044978453438 4.663253343653455 0 0 0
239 1 23.38155987978676 20.699001511342214 3.1043466666666664 0 0 0
240 2 21.822789165952766 19.799044978453445 4.6632533436534676 0 0 0
241 1 26.49910130745461 20.699001511342274 3.104346666666664 0 0 0
242 2 24.940330593620693 19.799044978453438 4.663253343653447 0 0 0
243 2 28.05787202128861 19.79904497845343 4.663253343653484 0 0 0
244 2 1.5587698861102266 22.498914741982215 4.663253343653627 0 0 0
245 2 4.676311313778015 22.498914741982308 4.663253343653549 0 0 0
246 1 3.117540599943934 23.39887127487106 3.1043466666667117 0 0 0
247 2 7.793852741446958 22.49891474198231 4.663253343653401 0 0 0
248 1 6.23508202761238 23.39887127487084 3.1043466666666726 0 0 0
249 1 9.352623455281236 23.398871274871002 3.104346666666672 0 0 0
250 2 10.911394169115313 22.498914741982265 4.663253343653468 0 0 0
251 1 12.470164882949167 23.39887127487106 3.1043466666666624 0 0 0
252 2 14.028935596783072 22.49891474198224 4.663253343653481 0 0 0
253 1 15.587706310617017 23.398871274871016 3.104346666666689 0 0 0
254 2 17.14647702445095 22.49891474198228 4.6632533436534365 0 0 0
255 2 20.26401845211895 22.49891474198228 4.663253343653443 0 0 0
256 1 18.705247738284957 23.39887127487102 3.1043466666666744 0 0 0
257 2 23.381559879786735 22.49891474198225 4.663253343653466 0 0 0
258 1 21.822789165952823 23.398871274871034 3.104346666666683 0 0 0
259 2 26.499101307454655 22.49891474198228 4.66325334365349 0 0 0
260 1 24.940330593620704 23.398871274871055 3.104346666666657 0 0 0
261 1 28.057872021288684 23.39887127487103 3.10434666666667 0 0 0
262 1 1.5587698861103985 26.098741038399854 3.1043466666666886 0 0 0
263 1 4.676311313778343 26.098741038399837 3.104346666666695 0 0 0
264 2 3.1175405999442263 25.19878450551118 4.6632533436535315 0 0 0
265 1 7.79385274144689 26.098741038399744 3.1043466666666526 0 0 0
266 2 6.2350820276125205 25.198784505511213 4.663253343653399 0 0 0
267 2 9.352623455281147 25.198784505511146 4.663253343653437 0 0 0
268 1 10.911394169115221 26.098741038399936 3.104346666666682 0 0 0
269 2 12.470164882949147 25.1987845055111 4.663253343653448 0 0 0
270 1 14.02893559678306 26.09874103839992 3.1043466666666695 0 0 0
271 2 15.587706310617017 25.198784505511117 4.663253343653436 0 0 0
272 1 17.146477024450917 26.09874103839981 3.1043466666666615 0 0 0
273 1 20.264018452118986 26.09874103839985 3.1043466666666757 0 0 0
274 2 18.705247738284957 25.198784505511075 4.663253343653447 0 0 0
275 1 23.38155987978676 26.098741038399897 3.104346666666686 0 0 0
276 2 21.822789165952766 25.198784505511103 4.66325334365346 0 0 0
277 1 26.499101307454648 26.098741038399908 3.1043466666666832 0 0 0
278 2 24.940330593620693 25.198784505511146 4.66325334365344 0 0 0
279 2 28.05787202128861 25.198784505511103 4.66325334365346 0 0 0
280 2 1.5587698861102266 27.898654269039838 4.663253343653636 0 0 0
281 2 4.676311313778019 27.89865426903991 4.663253343653571 0 0 0
283 2 7.793852741446958 27.898654269039962 4.663253343653403 0 0 0
286 2 10.911394169115317 27.898654269039923 4.663253343653471 0 0 0
288 2 14.028935596783072 27.898654269039895 4.663253343653482 0 0 0
287 2 17.14647702445095 27.89865426903991 4.663253343653423 0 0 0
285 2 20.26401845211892 27.89865426903988 4.663253343653465 0 0 0
284 2 23.38155987978672 27.898654269039884 4.66325334365348 0 0 0
282 2 26.49910130745461 27.898654269039923 4.663253343653492 0 0 0
562 1 6.2350820276124015 28.798610801928465 3.104346666666675 0 0 0
559 1 3.1175405999439345 28.79861080192862 3.1043466666666486 0 0 0
560 1 28.05787202128861 28.798610801928675 3.104346666666669 0 0 0
561 1 24.940330593620697 28.798610801928643 3.1043466666666744 0 0 0
563 1 21.82278916595281 28.798610801928636 3.1043466666666855 0 0 0
565 1 18.705247738284864 28.798610801928618 3.1043466666666695 0 0 0
567 1 15.587706310617072 28.79861080192867 3.104346666666668 0 0 0
566 1 12.470164882949154 28.798610801928685 3.1043466666666615 0 0 0
564 1 9.352623455281151 28.79861080192867 3.1043466666666473 0 0 0
289 3 3.1175405999442893 30.598524032568715 1.545439989679819 0 0 0
290 3 6.235082027612523 30.598524032568733 1.5454399896799402 0 0 0
291 3 9.352623455281131 30.59852403256877 1.5454399896799067 0 0 0
292 3 12.470164882949138 30.59852403256869 1.5454399896798856 0 0 0
293 3 15.587706310617007 30.598524032568687 1.5454399896798916 0 0 0
294 3 18.705247738284918 30.59852403256869 1.5454399896798534 0 0 0
295 3 21.82278916595278 30.5985240325687 1.5454399896799171 0 0 0
296 3 24.940330593620693 30.5985240325687 1.54543998967991 0 0 0
297 3 28.057872021288627 30.59852403256869 1.545439989679893 0 0 0
298 3 1.5587698861102102 33.29839379609736 1.5454399896796784 0 0 0
299 3 4.67631131377809 33.29839379609755 1.5454399896797928 0 0 0
300 3 7.7938527414469645 33.298393796097606 1.5454399896799667 0 0 0
301 3 10.911394169115281 33.298393796097486 1.5454399896798918 0 0 0
302 3 14.02893559678306 33.29839379609747 1.54543998967989 0 0 0
303 3 17.1464770244509 33.29839379609747 1.5454399896799222 0 0 0
304 3 20.26401845211895 33.29839379609755 1.5454399896799083 0 0 0
305 3 23.38155987978672 33.298393796097535 1.5454399896798967 0 0 0
306 3 26.499101307454655 33.29839379609752 1.5454399896798625 0 0 0
307 3 3.1175405999443386 35.99826355962639 1.5454399896797062 0 0 0
308 3 6.2350820276125765 35.998263559626416 1.5454399896799484 0 0 0
309 3 9.352623455281146 35.998263559626416 1.5454399896799085 0 0 0
310 3 12.470164882949138 35.998263559626345 1.5454399896798965 0 0 0
311 3 15.587706310617062 35.9982635596264 1.5454399896799171 0 0 0
312 3 18.705247738284896 35.99826355962632 1.5454399896798818 0 0 0
313 3 21.822789165952717 35.998263559626416 1.545439989679891 0 0 0
314 3 24.940330593620683 35.99826355962639 1.5454399896799205 0 0 0
315 3 28.05787202128861 35.99826355962639 1.5454399896798778 0 0 0
316 3 1.5587698861103088 38.69813332315506 1.545439989679639 0 0 0
317 3 4.676311313778203 38.69813332315511 1.5454399896797972 0 0 0
318 3 7.793852741447004 38.69813332315525 1.545439989679942 0 0 0
319 3 10.911394169115287 38.69813332315517 1.545439989679876 0 0 0
320 3 14.02893559678308 38.69813332315517 1.545439989679873 0 0 0
321 3 17.146477024450913 38.69813332315518 1.5454399896799214 0 0 0
322 3 20.26401845211895 38.69813332315518 1.5454399896799136 0 0 0
323 3 23.38155987978672 38.69813332315518 1.5454399896798918 0 0 0
324 3 26.499101307454655 38.6981333231552 1.5454399896798636 0 0 0
325 3 3.1175405999442964 41.39800308668398 1.5454399896797522 0 0 0
326 3 6.23508202761254 41.39800308668411 1.5454399896799276 0 0 0
327 3 9.352623455281062 41.39800308668402 1.5454399896799131 0 0 0
328 3 12.470164882949112 41.39800308668392 1.5454399896799 0 0 0
329 3 15.587706310617065 41.39800308668392 1.5454399896799056 0 0 0
330 3 18.705247738284957 41.39800308668391 1.545439989679866 0 0 0
331 3 21.822789165952734 41.398003086683964 1.545439989679893 0 0 0
332 3 24.940330593620732 41.39800308668399 1.5454399896798792 0 0 0
333 3 28.057872021288627 41.39800308668392 1.545439989679895 0 0 0
334 3 1.558769886110351 44.09787285021286 1.5454399896795856 0 0 0
335 3 4.676311313778115 44.0978728502128 1.5454399896797786 0 0 0
336 3 7.793852741446978 44.0978728502128 1.545439989679947 0 0 0
337 3 10.911394169115287 44.097872850212774 1.5454399896798965 0 0 0
338 3 14.028935596783063 44.097872850212774 1.5454399896799162 0 0 0
339 3 17.146477024450913 44.09787285021267 1.545439989679936 0 0 0
340 3 20.26401845211892 44.0978728502128 1.5454399896799034 0 0 0
341 3 23.38155987978674 44.09787285021272 1.54543998967993 0 0 0
342 3 26.499101307454684 44.0978728502128 1.5454399896799078 0 0 0
343 3 3.1175405999442902 46.79774261374182 1.5454399896797533 0 0 0
344 3 6.2350820276125285 46.7977426137416 1.545439989679941 0 0 0
345 3 9.352623455281147 46.7977426137416 1.5454399896798896 0 0 0
346 3 12.470164882949154 46.7977426137416 1.5454399896798834 0 0 0
347 3 15.587706310617072 46.7977426137416 1.5454399896798925 0 0 0
348 3 18.705247738284886 46.79774261374157 1.5454399896798912 0 0 0
349 3 21.822789165952788 46.7977426137416 1.545439989679882 0 0 0
350 3 24.940330593620693 46.7977426137416 1.5454399896798916 0 0 0
351 3 28.05787202128861 46.7977426137416 1.5454399896798752 0 0 0
352 3 1.558769886110285 49.49761237727037 1.5454399896795175 0 0 0
353 3 4.676311313778128 49.49761237727039 1.5454399896797644 0 0 0
354 3 7.793852741447021 49.49761237727039 1.5454399896799174 0 0 0
355 3 10.911394169115257 49.49761237727037 1.5454399896798612 0 0 0
356 3 14.0289355967831 49.497612377270336 1.5454399896798772 0 0 0
357 3 17.146477024450913 49.49761237727047 1.545439989679927 0 0 0
358 3 20.264018452118943 49.49761237727037 1.5454399896799105 0 0 0
359 3 23.38155987978675 49.49761237727034 1.5454399896798765 0 0 0
360 3 26.499101307454648 49.49761237727034 1.5454399896798667 0 0 0
361 3 3.1175405999442245 52.197482140799295 1.5454399896797932 0 0 0
362 3 6.2350820276125285 52.19748214079932 1.545439989679973 0 0 0
363 3 9.352623455281146 52.19748214079927 1.545439989679952 0 0 0
364 3 12.470164882949176 52.19748214079922 1.5454399896799078 0 0 0
365 3 15.587706310617017 52.19748214079927 1.5454399896799247 0 0 0
366 3 18.705247738284953 52.19748214079922 1.545439989679891 0 0 0
367 3 21.82278916595271 52.197482140799266 1.5454399896799118 0 0 0
368 3 24.940330593620665 52.19748214079927 1.5454399896799484 0 0 0
369 3 28.057872021288627 52.19748214079927 1.5454399896799316 0 0 0
370 3 1.5587698861103156 54.89735190432804 1.5454399896796536 0 0 0
371 3 4.6763113137780365 54.89735190432817 1.5454399896797935 0 0 0
372 3 7.793852741446921 54.89735190432814 1.545439989679964 0 0 0
373 3 10.911394169115336 54.89735190432801 1.5454399896798618 0 0 0
374 3 14.028935596783079 54.89735190432804 1.5454399896798598 0 0 0
375 3 17.146477024450938 54.89735190432804 1.5454399896798834 0 0 0
376 3 20.26401845211891 54.89735190432811 1.5454399896799003 0 0 0
377 3 23.381559879786685 54.89735190432798 1.5454399896798794 0 0 0
378 3 26.499101307454648 54.89735190432811 1.5454399896798692 0 0 0
379 2 3.1175405999442583 30.59852403256873 4.6632533436535395 0 0 0
558 1 28.05787202128867 55.79730843721676 3.1043466666666957 0 0 0
380 2 6.2350820276125045 30.598524032568783 4.663253343653401 0 0 0
557 1 24.94033059362064 55.79730843721666 3.104346666666682 0 0 0
381 2 9.352623455281131 30.59852403256872 4.663253343653437 0 0 0
556 1 21.822789165952692 55.79730843721679 3.1043466666666917 0 0 0
382 2 12.470164882949138 30.59852403256869 4.663253343653477 0 0 0
555 1 18.705247738284864 55.797308437216714 3.104346666666681 0 0 0
383 2 15.587706310617035 30.59852403256869 4.663253343653462 0 0 0
554 1 15.587706310617007 55.79730843721679 3.104346666666664 0 0 0
384 2 18.705247738284896 30.598524032568687 4.663253343653481 0 0 0
553 1 12.470164882949172 55.797308437216685 3.104346666666659 0 0 0
385 2 21.82278916595278 30.598524032568687 4.663253343653458 0 0 0
552 1 9.352623455281147 55.79730843721676 3.104346666666659 0 0 0
386 2 24.940330593620693 30.59852403256872 4.663253343653431 0 0 0
551 1 6.235082027612427 55.797308437216664 3.1043466666666877 0 0 0
387 2 28.05787202128861 30.59852403256872 4.663253343653449 0 0 0
550 1 3.1175405999439647 55.79730843721685 3.1043466666666535 0 0 0
388 2 1.5587698861102277 33.29839379609731 4.663253343653633 0 0 0
389 1 1.558769886110426 31.498480565457424 3.104346666666612 0 0 0
390 2 4.676311313778072 33.29839379609757 4.663253343653508 0 0 0
391 1 4.676311313778399 31.498480565457346 3.1043466666666366 0 0 0
392 2 7.793852741446966 33.29839379609757 4.663253343653381 0 0 0
393 1 7.793852741446866 31.498480565457356 3.1043466666666744 0 0 0
394 2 10.911394169115304 33.298393796097535 4.663253343653469 0 0 0
395 1 10.911394169115207 31.49848056545736 3.1043466666666886 0 0 0
396 2 14.028935596783056 33.29839379609755 4.663253343653471 0 0 0
397 1 14.028935596783079 31.498480565457356 3.1043466666666886 0 0 0
398 2 17.14647702445095 33.29839379609752 4.6632533436534365 0 0 0
399 1 17.146477024450917 31.49848056545737 3.1043466666666677 0 0 0
400 2 20.26401845211895 33.29839379609755 4.663253343653443 0 0 0
401 1 20.26401845211895 31.498480565457356 3.1043466666666877 0 0 0
402 2 23.38155987978674 33.29839379609755 4.663253343653467 0 0 0
403 1 23.38155987978676 31.498480565457456 3.1043466666666886 0 0 0
404 2 26.499101307454655 33.298393796097535 4.663253343653494 0 0 0
405 1 26.499101307454616 31.498480565457346 3.104346666666665 0 0 0
406 1 3.1175405999438985 34.198350328986194 3.1043466666666655 0 0 0
407 2 3.117540599944292 35.99826355962636 4.663253343653593 0 0 0
408 1 6.235082027612445 34.198350328986145 3.104346666666676 0 0 0
409 2 6.235082027612606 35.99826355962644 4.663253343653388 0 0 0
410 1 9.35262345528123 34.19835032898632 3.10434666666669 0 0 0
411 2 9.352623455281137 35.998263559626416 4.663253343653434 0 0 0
412 1 12.470164882949163 34.19835032898632 3.1043466666666646 0 0 0
413 2 12.470164882949119 35.99826355962632 4.663253343653446 0 0 0
414 1 15.587706310617033 34.19835032898621 3.1043466666666895 0 0 0
415 2 15.587706310617017 35.99826355962637 4.663253343653448 0 0 0
416 1 18.705247738284942 34.19835032898621 3.104346666666649 0 0 0
417 2 18.705247738284942 35.99826355962629 4.663253343653456 0 0 0
418 1 21.822789165952766 34.19835032898632 3.104346666666673 0 0 0
419 2 21.822789165952713 35.99826355962639 4.663253343653443 0 0 0
420 1 24.940330593620693 34.19835032898626 3.104346666666687 0 0 0
421 2 24.940330593620693 35.9982635596264 4.663253343653417 0 0 0
422 1 28.05787202128861 34.19835032898621 3.10434666666667 0 0 0
423 2 28.05787202128861 35.99826355962639 4.663253343653467 0 0 0
424 2 1.5587698861103338 38.698133323155034 4.663253343653692 0 0 0
425 1 1.5587698861103374 36.89822009251485 3.1043466666666664 0 0 0