LAMMPS data file via write_data, version 21 Nov 2023, timestep = 38, units = metal

28800 atoms
3 atom types

0 935.2627795560456 xlo xhi
0 86.39587480710973 ylo yhi
0 50 zlo zhi
0 0 0 xy xz yz

Masses

1 95.94
2 32.065
3 32.065

Atoms # atomic

5 3 1.5587704709778638 0.8999570568303046 1.5454401246662703 0 0 0
11 3 4.676313069498103 0.8999570568302978 1.545440124666289 0 0 0
17 3 7.79385566801828 0.8999570568302939 1.5454401246662912 0 0 0
23 3 10.911398266538438 0.8999570568302926 1.5454401246662888 0 0 0
29 3 14.02894086505859 0.8999570568302929 1.5454401246662897 0 0 0
35 3 17.146483463578736 0.8999570568302929 1.5454401246662912 0 0 0
41 3 20.264026062098882 0.8999570568302926 1.5454401246662908 0 0 0
47 3 23.381568660619042 0.8999570568302921 1.5454401246662925 0 0 0
53 3 26.49911125913919 0.8999570568302943 1.5454401246662934 0 0 0
12 3 3.117541771356274 3.5998281445522062 1.5454401246682594 0 0 0
18 3 6.2350843698764615 3.5998281445522045 1.545440124668273 0 0 0
24 3 9.352626968396626 3.5998281445522045 1.5454401246682712 0 0 0
30 3 12.470169566916775 3.5998281445522027 1.5454401246682725 0 0 0
36 3 15.58771216543693 3.5998281445522027 1.545440124668273 0 0 0
42 3 18.705254763957072 3.5998281445522027 1.5454401246682732 0 0 0
48 3 21.82279736247722 3.5998281445522045 1.5454401246682716 0 0 0
54 3 24.940339960997377 3.5998281445522027 1.5454401246682725 0 0 0
60 3 28.057882559517537 3.5998281445522027 1.5454401246682712 0 0 0
1805 3 1.558770470977864 6.299699232274655 1.545440124666277 0 0 0
1811 3 4.676313069498103 6.299699232274652 1.5454401246662928 0 0 0
1817 3 7.79385566801828 6.299699232274649 1.5454401246662959 0 0 0
1823 3 10.911398266538441 6.299699232274648 1.5454401246662957 0 0 0
1829 3 14.02894086505859 6.299699232274648 1.5454401246662957 0 0 0
1835 3 17.146483463578743 6.299699232274648 1.5454401246662963 0 0 0
1841 3 20.264026062098882 6.299699232274648 1.5454401246662943 0 0 0
1847 3 23.381568660619042 6.299699232274648 1.545440124666295 0 0 0
1853 3 26.49911125913919 6.299699232274648 1.5454401246662957 0 0 0
1812 3 3.117541771356272 8.999570319996572 1.5454401246682576 0 0 0
1818 3 6.2350843698764615 8.999570319996568 1.5454401246682725 0 0 0
1824 3 9.35262696839662 8.999570319996568 1.5454401246682716 0 0 0
1830 3 12.470169566916775 8.999570319996568 1.5454401246682725 0 0 0
1836 3 15.58771216543693 8.999570319996568 1.5454401246682725 0 0 0
1842 3 18.70525476395707 8.999570319996568 1.5454401246682725 0 0 0
1848 3 21.82279736247722 8.999570319996572 1.5454401246682712 0 0 0
1854 3 24.940339960997377 8.999570319996568 1.5454401246682716 0 0 0
1860 3 28.057882559517537 8.999570319996568 1.5454401246682705 0 0 0
3605 3 1.5587704709778638 11.699441407719025 1.5454401246662768 0 0 0
3611 3 4.676313069498103 11.699441407719013 1.545440124666292 0 0 0
3617 3 7.79385566801828 11.699441407719013 1.5454401246662963 0 0 0
3623 3 10.911398266538438 11.699441407719013 1.5454401246662959 0 0 0
3629 3 14.02894086505859 11.699441407719013 1.5454401246662959 0 0 0
3635 3 17.146483463578743 11.699441407719013 1.5454401246662963 0 0 0
3641 3 20.264026062098882 11.699441407719013 1.5454401246662934 0 0 0
3647 3 23.381568660619042 11.699441407719013 1.5454401246662948 0 0 0
3653 3 26.49911125913919 11.699441407719013 1.545440124666294 0 0 0
3612 3 3.117541771356272 14.399312495440926 1.5454401246682594 0 0 0
3618 3 6.235084369876456 14.399312495440926 1.5454401246682725 0 0 0
3624 3 9.35262696839662 14.399312495440926 1.5454401246682725 0 0 0
3630 3 12.470169566916775 14.399312495440926 1.5454401246682725 0 0 0
3636 3 15.58771216543693 14.399312495440926 1.5454401246682725 0 0 0
3642 3 18.705254763957072 14.399312495440926 1.5454401246682725 0 0 0
3648 3 21.82279736247722 14.399312495440926 1.545440124668271 0 0 0
3654 3 24.940339960997377 14.399312495440926 1.5454401246682712 0 0 0
3660 3 28.05788255951754 14.399312495440926 1.5454401246682725 0 0 0
5405 3 1.558770470977864 17.09918358316338 1.5454401246662781 0 0 0
5411 3 4.676313069498103 17.099183583163374 1.5454401246662925 0 0 0
5417 3 7.79385566801828 17.099183583163367 1.5454401246662959 0 0 0
5423 3 10.911398266538438 17.099183583163367 1.5454401246662957 0 0 0
5429 3 14.02894086505859 17.099183583163367 1.5454401246662943 0 0 0
5435 3 17.146483463578743 17.099183583163367 1.5454401246662952 0 0 0
5441 3 20.264026062098882 17.099183583163367 1.5454401246662934 0 0 0
5447 3 23.381568660619042 17.099183583163367 1.545440124666294 0 0 0
5453 3 26.49911125913919 17.099183583163367 1.545440124666294 0 0 0
5412 3 3.117541771356272 19.799054670885294 1.5454401246682599 0 0 0
5418 3 6.235084369876458 19.799054670885294 1.545440124668273 0 0 0
5424 3 9.352626968396626 19.799054670885287 1.5454401246682716 0 0 0
5430 3 12.470169566916775 19.799054670885287 1.5454401246682725 0 0 0
5436 3 15.58771216543693 19.799054670885287 1.545440124668273 0 0 0
5442 3 18.70525476395707 19.799054670885287 1.5454401246682732 0 0 0
5448 3 21.82279736247722 19.799054670885287 1.545440124668273 0 0 0
5454 3 24.940339960997377 19.799054670885287 1.5454401246682725 0 0 0
5460 3 28.05788255951754 19.799054670885294 1.5454401246682725 0 0 0
7205 3 1.5587704709778638 22.49892575860774 1.5454401246662801 0 0 0
7211 3 4.676313069498103 22.498925758607733 1.5454401246662943 0 0 0
7217 3 7.79385566801828 22.498925758607733 1.5454401246662974 0 0 0
7223 3 10.911398266538441 22.498925758607726 1.545440124666298 0 0 0
7229 3 14.02894086505859 22.498925758607726 1.5454401246662988 0 0 0
7235 3 17.146483463578747 22.498925758607733 1.5454401246662999 0 0 0
7241 3 20.264026062098893 22.498925758607733 1.5454401246662952 0 0 0
7247 3 23.381568660619042 22.498925758607726 1.5454401246662974 0 0 0
7253 3 26.49911125913919 22.498925758607733 1.5454401246662977 0 0 0
7212 3 3.117541771356272 25.198796846329646 1.5454401246682583 0 0 0
7218 3 6.235084369876459 25.198796846329646 1.5454401246682694 0 0 0
7224 3 9.35262696839662 25.198796846329646 1.5454401246682696 0 0 0
7230 3 12.470169566916775 25.198796846329646 1.5454401246682699 0 0 0
7236 3 15.58771216543693 25.198796846329646 1.545440124668271 0 0 0
7242 3 18.705254763957072 25.198796846329646 1.5454401246682705 0 0 0
7248 3 21.82279736247722 25.198796846329646 1.5454401246682694 0 0 0
7254 3 24.940339960997377 25.198796846329646 1.5454401246682696 0 0 0
7260 3 28.057882559517537 25.198796846329646 1.5454401246682699 0 0 0
9005 3 1.5587704709778638 27.898667934052092 1.545440124666275 0 0 0
9011 3 4.676313069498103 27.898667934052092 1.5454401246662925 0 0 0
9017 3 7.79385566801828 27.898667934052092 1.5454401246662925 0 0 0
9023 3 10.911398266538438 27.898667934052078 1.5454401246662934 0 0 0
9029 3 14.02894086505859 27.898667934052078 1.5454401246662937 0 0 0
9035 3 17.146483463578747 27.898667934052078 1.5454401246662963 0 0 0
9041 3 20.26402606209888 27.898667934052092 1.5454401246662912 0 0 0
9047 3 23.381568660619042 27.898667934052078 1.5454401246662928 0 0 0
9053 3 26.499111259139195 27.898667934052092 1.5454401246662917 0 0 0
3 2 1.5587704709777899 0.8999570568303025 4.663253208599521 0 0 0
9 2 4.6763130694980335 0.8999570568303107 4.663253208599565 0 0 0
8 1 3.117541770312325 1.799914086073851 3.1043466667341626 0 0 0
15 2 7.7938556680182165 0.8999570568303068 4.663253208599571 0 0 0
14 1 6.2350843688325375 1.7999140860738603 3.1043466667341777 0 0 0
20 1 9.352626967352707 1.7999140860738603 3.1043466667341773 0 0 0
21 2 10.911398266538368 0.8999570568303059 4.663253208599569 0 0 0
26 1 12.470169565872856 1.7999140860738612 3.104346666734181 0 0 0
27 2 14.028940865058521 0.8999570568303058 4.663253208599568 0 0 0
32 1 15.587712164393015 1.7999140860738603 3.104346666734179 0 0 0
33 2 17.14648346357869 0.8999570568303059 4.663253208599571 0 0 0
39 2 20.26402606209884 0.8999570568303047 4.6632532085995715 0 0 0
38 1 18.705254762913164 1.7999140860738603 3.1043466667341817 0 0 0
45 2 23.381568660618978 0.8999570568303059 4.6632532085995715 0 0 0
44 1 21.822797361433306 1.7999140860738603 3.104346666734176 0 0 0
51 2 26.499111259139138 0.8999570568303055 4.663253208599572 0 0 0
50 1 24.940339959953455 1.799914086073862 3.104346666734181 0 0 0
56 1 28.05788255847361 1.7999140860738603 3.104346666734181 0 0 0
1 1 1.5587704720227475 4.499785173798104 3.1043466667339885 0 0 0
7 1 4.6763130705428315 4.499785173798069 3.1043466667340267 0 0 0
10 2 3.1175417713561986 3.5998281445521823 4.663253208597631 0 0 0
13 1 7.7938556690630145 4.499785173798075 3.104346666734032 0 0 0
16 2 6.235084369876397 3.5998281445521707 4.663253208597655 0 0 0
22 2 9.352626968396573 3.5998281445521667 4.663253208597657 0 0 0
19 1 10.911398267583174 4.499785173798073 3.104346666734032 0 0 0
28 2 12.47016956691672 3.5998281445521685 4.6632532085976575 0 0 0
25 1 14.028940866103326 4.499785173798075 3.10434666673403 0 0 0
34 2 15.587712165436857 3.5998281445521685 4.663253208597657 0 0 0
31 1 17.146483464623472 4.4997851737980765 3.1043466667340325 0 0 0
37 1 20.26402606314363 4.4997851737980765 3.104346666734031 0 0 0
40 2 18.705254763957026 3.5998281445521685 4.663253208597658 0 0 0
43 1 23.381568661663774 4.499785173798075 3.104346666734032 0 0 0
46 2 21.822797362477175 3.5998281445521667 4.663253208597657 0 0 0
49 1 26.499111260183934 4.4997851737980765 3.104346666734029 0 0 0
52 2 24.94033996099734 3.5998281445521685 4.6632532085976575 0 0 0
58 2 28.057882559517477 3.5998281445521685 4.663253208597658 0 0 0
1803 2 1.5587704709777899 6.299699232274656 4.663253208599518 0 0 0
1809 2 4.6763130694980335 6.299699232274666 4.663253208599563 0 0 0
1808 1 3.117541770312325 7.199656261518212 3.1043466667341626 0 0 0
1815 2 7.7938556680182165 6.299699232274662 4.663253208599568 0 0 0
1814 1 6.2350843688325375 7.199656261518222 3.104346666734179 0 0 0
1820 1 9.352626967352707 7.199656261518222 3.1043466667341777 0 0 0
1821 2 10.911398266538368 6.299699232274662 4.663253208599569 0 0 0
1826 1 12.470169565872856 7.199656261518222 3.104346666734181 0 0 0
1827 2 14.028940865058521 6.299699232274662 4.663253208599569 0 0 0
1832 1 15.587712164393015 7.199656261518222 3.104346666734179 0 0 0
1833 2 17.14648346357869 6.299699232274665 4.66325320859957 0 0 0
1839 2 20.26402606209884 6.299699232274662 4.663253208599568 0 0 0
1838 1 18.705254762913164 7.199656261518225 3.1043466667341812 0 0 0
1845 2 23.381568660618978 6.299699232274662 4.663253208599568 0 0 0
1844 1 21.822797361433306 7.199656261518226 3.104346666734175 0 0 0
1851 2 26.499111259139138 6.299699232274662 4.663253208599568 0 0 0
1850 1 24.940339959953455 7.199656261518226 3.1043466667341795 0 0 0
1856 1 28.05788255847361 7.199656261518222 3.1043466667341795 0 0 0
1801 1 1.5587704720227518 9.89952734924247 3.1043466667339885 0 0 0
1807 1 4.6763130705428315 9.899527349242431 3.1043466667340267 0 0 0
1810 2 3.1175417713561973 8.999570319996545 4.663253208597631 0 0 0
1813 1 7.793855669063013 9.899527349242438 3.104346666734033 0 0 0
1816 2 6.235084369876397 8.999570319996534 4.663253208597654 0 0 0
1822 2 9.352626968396569 8.999570319996531 4.663253208597657 0 0 0
1819 1 10.911398267583172 9.899527349242438 3.104346666734032 0 0 0
1828 2 12.47016956691672 8.999570319996531 4.663253208597657 0 0 0
1825 1 14.028940866103326 9.899527349242442 3.10434666673403 0 0 0
1834 2 15.587712165436857 8.999570319996531 4.663253208597656 0 0 0
1831 1 17.14648346462347 9.899527349242442 3.1043466667340325 0 0 0
1837 1 20.26402606314362 9.899527349242438 3.1043466667340325 0 0 0
1840 2 18.705254763957026 8.999570319996531 4.6632532085976575 0 0 0
1843 1 23.381568661663774 9.899527349242438 3.104346666734034 0 0 0
1846 2 21.822797362477175 8.999570319996531 4.663253208597656 0 0 0
1849 1 26.499111260183934 9.899527349242438 3.1043466667340307 0 0 0
1852 2 24.94033996099734 8.999570319996531 4.663253208597657 0 0 0
1858 2 28.057882559517477 8.999570319996531 4.663253208597657 0 0 0
3603 2 1.5587704709777892 11.699441407719018 4.663253208599519 0 0 0
3609 2 4.6763130694980335 11.699441407719025 4.6632532085995635 0 0 0
3608 1 3.117541770312326 12.599398436962568 3.104346666734165 0 0 0
3615 2 7.7938556680182165 11.699441407719025 4.66325320859957 0 0 0
3614 1 6.2350843688325375 12.599398436962577 3.104346666734179 0 0 0
3620 1 9.352626967352702 12.599398436962577 3.104346666734177 0 0 0
3621 2 10.911398266538367 11.699441407719025 4.66325320859957 0 0 0
3626 1 12.470169565872856 12.599398436962577 3.104346666734181 0 0 0
3627 2 14.028940865058521 11.699441407719025 4.66325320859957 0 0 0
3632 1 15.587712164393015 12.599398436962582 3.104346666734179 0 0 0
3633 2 17.14648346357869 11.699441407719025 4.66325320859957 0 0 0
3639 2 20.26402606209884 11.699441407719025 4.663253208599569 0 0 0
3638 1 18.705254762913164 12.599398436962577 3.104346666734181 0 0 0
3645 2 23.381568660618978 11.699441407719025 4.663253208599568 0 0 0
3644 1 21.822797361433306 12.599398436962577 3.1043466667341733 0 0 0
3651 2 26.499111259139138 11.699441407719025 4.663253208599569 0 0 0
3650 1 24.940339959953455 12.599398436962577 3.1043466667341795 0 0 0
3656 1 28.05788255847361 12.599398436962577 3.104346666734179 0 0 0
3601 1 1.5587704720227509 15.29926952468683 3.1043466667339894 0 0 0
3607 1 4.676313070542829 15.299269524686792 3.104346666734026 0 0 0
3610 2 3.1175417713561986 14.3993124954409 4.663253208597631 0 0 0
3613 1 7.793855669063013 15.2992695246868 3.1043466667340325 0 0 0
3616 2 6.235084369876397 14.399312495440894 4.663253208597654 0 0 0
3622 2 9.352626968396569 14.39931249544089 4.663253208597658 0 0 0
3619 1 10.911398267583172 15.299269524686798 3.104346666734034 0 0 0
3628 2 12.470169566916724 14.39931249544089 4.6632532085976575 0 0 0
3625 1 14.028940866103328 15.2992695246868 3.10434666673403 0 0 0
3634 2 15.587712165436857 14.399312495440894 4.663253208597657 0 0 0
3631 1 17.146483464623472 15.2992695246868 3.1043466667340347 0 0 0
3637 1 20.26402606314363 15.2992695246868 3.104346666734034 0 0 0
3640 2 18.705254763957026 14.39931249544089 4.663253208597658 0 0 0
3643 1 23.381568661663774 15.2992695246868 3.104346666734034 0 0 0
3646 2 21.822797362477175 14.399312495440887 4.663253208597656 0 0 0
3649 1 26.499111260183934 15.2992695246868 3.1043466667340294 0 0 0
3652 2 24.94033996099734 14.39931249544089 4.6632532085976575 0 0 0
3658 2 28.057882559517477 14.399312495440894 4.663253208597656 0 0 0
5403 2 1.5587704709777892 17.099183583163374 4.66325320859952 0 0 0
5409 2 4.676313069498033 17.09918358316338 4.6632532085995635 0 0 0
5408 1 3.117541770312325 17.99914061240694 3.1043466667341657 0 0 0
5415 2 7.7938556680182165 17.09918358316338 4.663253208599568 0 0 0
5414 1 6.235084368832538 17.999140612406947 3.1043466667341795 0 0 0
5420 1 9.352626967352707 17.999140612406947 3.104346666734179 0 0 0
5421 2 10.911398266538368 17.09918358316338 4.663253208599569 0 0 0
5426 1 12.470169565872856 17.999140612406947 3.104346666734181 0 0 0
5427 2 14.028940865058521 17.09918358316338 4.663253208599568 0 0 0
5432 1 15.587712164393015 17.999140612406947 3.104346666734179 0 0 0
5433 2 17.14648346357869 17.09918358316338 4.66325320859957 0 0 0
5439 2 20.26402606209884 17.09918358316338 4.663253208599569 0 0 0
5438 1 18.705254762913164 17.999140612406947 3.1043466667341812 0 0 0
5445 2 23.381568660618978 17.09918358316338 4.663253208599568 0 0 0
5444 1 21.822797361433306 17.999140612406947 3.1043466667341773 0 0 0
5451 2 26.499111259139138 17.09918358316338 4.663253208599568 0 0 0
5450 1 24.940339959953455 17.999140612406947 3.104346666734181 0 0 0
5456 1 28.05788255847361 17.999140612406947 3.104346666734179 0 0 0
5401 1 1.5587704720227513 20.699011700131194 3.1043466667339903 0 0 0
5407 1 4.6763130705428315 20.69901170013115 3.104346666734026 0 0 0
5410 2 3.117541771356199 19.799054670885273 4.663253208597633 0 0 0
5413 1 7.793855669063011 20.699011700131166 3.1043466667340294 0 0 0
5416 2 6.235084369876397 19.79905467088525 4.663253208597655 0 0 0
5422 2 9.352626968396573 19.79905467088525 4.6632532085976575 0 0 0
5419 1 10.911398267583172 20.699011700131166 3.1043466667340303 0 0 0
5428 2 12.47016956691672 19.79905467088525 4.6632532085976575 0 0 0
5425 1 14.028940866103326 20.699011700131166 3.1043466667340303 0 0 0
5434 2 15.587712165436857 19.79905467088525 4.6632532085976575 0 0 0
5431 1 17.146483464623472 20.699011700131166 3.1043466667340325 0 0 0
5437 1 20.26402606314362 20.699011700131166 3.104346666734031 0 0 0
5440 2 18.705254763957026 19.79905467088525 4.663253208597658 0 0 0
5443 1 23.381568661663774 20.699011700131166 3.104346666734031 0 0 0
5446 2 21.822797362477175 19.79905467088525 4.663253208597657 0 0 0
5449 1 26.499111260183934 20.699011700131166 3.104346666734029 0 0 0
5452 2 24.94033996099734 19.79905467088525 4.6632532085976575 0 0 0
5458 2 28.057882559517477 19.79905467088525 4.663253208597657 0 0 0
7203 2 1.55877047097779 22.49892575860774 4.663253208599521 0 0 0
7209 2 4.6763130694980335 22.498925758607747 4.663253208599564 0 0 0
7208 1 3.117541770312325 23.398882787851306 3.104346666734163 0 0 0
7215 2 7.7938556680182165 22.498925758607747 4.663253208599568 0 0 0
7214 1 6.2350843688325375 23.398882787851306 3.104346666734181 0 0 0
7220 1 9.3526269673527 23.398882787851306 3.1043466667341773 0 0 0
7221 2 10.911398266538367 22.498925758607747 4.66325320859957 0 0 0
7226 1 12.470169565872856 23.39888278785132 3.104346666734184 0 0 0
7227 2 14.028940865058521 22.498925758607747 4.663253208599571 0 0 0
7232 1 15.587712164393015 23.39888278785132 3.104346666734184 0 0 0
7233 2 17.14648346357869 22.498925758607747 4.663253208599571 0 0 0
7239 2 20.26402606209884 22.498925758607747 4.6632532085995715 0 0 0
7238 1 18.70525476291317 23.39888278785132 3.1043466667341844 0 0 0
7245 2 23.381568660618985 22.498925758607747 4.66325320859957 0 0 0
7244 1 21.822797361433306 23.39888278785132 3.1043466667341777 0 0 0
7251 2 26.499111259139138 22.498925758607747 4.66325320859957 0 0 0
7250 1 24.940339959953455 23.39888278785132 3.1043466667341826 0 0 0
7256 1 28.05788255847361 23.398882787851306 3.104346666734178 0 0 0
7201 1 1.5587704720227475 26.098753875575547 3.1043466667339907 0 0 0
7207 1 4.67631307054283 26.098753875575508 3.104346666734026 0 0 0
7210 2 3.1175417713561986 25.19879684632961 4.663253208597632 0 0 0
7213 1 7.7938556690630145 26.098753875575518 3.104346666734032 0 0 0
7216 2 6.235084369876398 25.19879684632961 4.663253208597656 0 0 0
7222 2 9.352626968396569 25.198796846329596 4.663253208597658 0 0 0
7219 1 10.911398267583172 26.098753875575518 3.1043466667340347 0 0 0
7228 2 12.47016956691672 25.19879684632961 4.66325320859766 0 0 0
7225 1 14.028940866103326 26.098753875575518 3.1043466667340325 0 0 0
7234 2 15.587712165436857 25.19879684632961 4.66325320859766 0 0 0
7231 1 17.146483464623472 26.098753875575518 3.1043466667340347 0 0 0
7237 1 20.26402606314362 26.098753875575518 3.1043466667340307 0 0 0
7240 2 18.705254763957026 25.19879684632961 4.66325320859766 0 0 0
7243 1 23.381568661663774 26.098753875575518 3.1043466667340334 0 0 0
7246 2 21.82279736247717 25.19879684632961 4.663253208597657 0 0 0
7249 1 26.499111260183934 26.098753875575518 3.104346666734029 0 0 0
7252 2 24.94033996099734 25.19879684632961 4.663253208597659 0 0 0
7258 2 28.057882559517477 25.198796846329596 4.6632532085976575 0 0 0
9003 2 1.5587704709777879 27.898667934052092 4.663253208599518 0 0 0
9009 2 4.676313069498033 27.898667934052092 4.66325320859956 0 0 0
9015 2 7.7938556680182165 27.898667934052106 4.663253208599564 0 0 0
9021 2 10.911398266538368 27.898667934052092 4.6632532085995635 0 0 0
9027 2 14.028940865058521 27.898667934052092 4.6632532085995635 0 0 0
9033 2 17.14648346357869 27.898667934052092 4.663253208599566 0 0 0
9039 2 20.26402606209884 27.898667934052092 4.663253208599566 0 0 0
9045 2 23.381568660618978 27.898667934052092 4.663253208599563 0 0 0
9051 2 26.499111259139138 27.898667934052092 4.663253208599564 0 0 0
9012 3 3.1175417713562688 30.598539021774002 1.5454401246682614 0 0 0
9018 3 6.2350843698764535 30.598539021774002 1.5454401246682736 0 0 0
9024 3 9.35262696839662 30.598539021774002 1.5454401246682712 0 0 0
9030 3 12.470169566916775 30.598539021774002 1.5454401246682725 0 0 0
9036 3 15.58771216543693 30.598539021774002 1.5454401246682725 0 0 0
9042 3 18.70525476395707 30.598539021774002 1.5454401246682725 0 0 0
9048 3 21.82279736247722 30.598539021774002 1.545440124668271 0 0 0
9054 3 24.940339960997377 30.598539021774002 1.5454401246682716 0 0 0
9060 3 28.057882559517537 30.598539021774002 1.5454401246682699 0 0 0
10805 3 1.558770470977865 33.298410109496466 1.545440124666275 0 0 0
10811 3 4.676313069498103 33.298410109496444 1.5454401246662919 0 0 0
10817 3 7.79385566801828 33.298410109496444 1.5454401246662952 0 0 0
10823 3 10.911398266538441 33.298410109496444 1.5454401246662952 0 0 0
10829 3 14.02894086505859 33.298410109496444 1.5454401246662963 0 0 0
10835 3 17.146483463578736 33.298410109496444 1.545440124666295 0 0 0
10841 3 20.264026062098882 33.29841010949644 1.5454401246662934 0 0 0
10847 3 23.381568660619042 33.29841010949644 1.5454401246662943 0 0 0
10853 3 26.49911125913919 33.298410109496444 1.5454401246662937 0 0 0
10812 3 3.1175417713562736 35.99828119721837 1.545440124668257 0 0 0
10818 3 6.2350843698764615 35.99828119721837 1.5454401246682725 0 0 0
10824 3 9.35262696839662 35.99828119721837 1.545440124668273 0 0 0
10830 3 12.470169566916775 35.99828119721837 1.545440124668273 0 0 0
10836 3 15.58771216543693 35.99828119721837 1.5454401246682736 0 0 0
10842 3 18.705254763957072 35.99828119721837 1.5454401246682732 0 0 0
10848 3 21.82279736247722 35.99828119721837 1.5454401246682725 0 0 0
10854 3 24.940339960997377 35.99828119721837 1.5454401246682725 0 0 0
10860 3 28.057882559517537 35.99828119721837 1.5454401246682703 0 0 0
12605 3 1.558770470977864 38.69815228494081 1.5454401246662768 0 0 0
12611 3 4.676313069498103 38.698152284940825 1.5454401246662928 0 0 0
12617 3 7.79385566801828 38.69815228494081 1.5454401246662952 0 0 0
12623 3 10.911398266538441 38.69815228494081 1.5454401246662959 0 0 0
12629 3 14.02894086505859 38.69815228494081 1.5454401246662972 0 0 0
12635 3 17.146483463578743 38.69815228494081 1.5454401246662972 0 0 0
12641 3 20.264026062098882 38.69815228494081 1.5454401246662943 0 0 0
12647 3 23.381568660619042 38.69815228494081 1.5454401246662954 0 0 0
12653 3 26.499111259139195 38.69815228494081 1.5454401246662937 0 0 0
12612 3 3.117541771356272 41.39802337266271 1.5454401246682583 0 0 0
12618 3 6.2350843698764615 41.39802337266271 1.545440124668273 0 0 0
12624 3 9.352626968396626 41.39802337266271 1.5454401246682712 0 0 0
12630 3 12.470169566916775 41.39802337266271 1.5454401246682703 0 0 0
12636 3 15.58771216543693 41.39802337266271 1.5454401246682712 0 0 0
12642 3 18.705254763957072 41.39802337266271 1.5454401246682716 0 0 0
12648 3 21.82279736247722 41.39802337266271 1.5454401246682694 0 0 0
12654 3 24.940339960997377 41.39802337266271 1.5454401246682696 0 0 0
12660 3 28.057882559517537 41.39802337266271 1.545440124668271 0 0 0
14405 3 1.5587704709778638 44.097894460385184 1.5454401246662732 0 0 0
14411 3 4.676313069498103 44.09789446038516 1.5454401246662848 0 0 0
14417 3 7.79385566801828 44.09789446038516 1.5454401246662872 0 0 0
14423 3 10.911398266538441 44.09789446038516 1.5454401246662874 0 0 0
14429 3 14.02894086505859 44.09789446038516 1.5454401246662872 0 0 0
14435 3 17.146483463578743 44.09789446038516 1.5454401246662872 0 0 0
14441 3 20.264026062098882 44.09789446038516 1.5454401246662848 0 0 0
14447 3 23.381568660619042 44.09789446038516 1.5454401246662886 0 0 0
14453 3 26.49911125913919 44.09789446038516 1.5454401246662868 0 0 0
14412 3 3.1175417713562763 46.797765548107066 1.5454401246682627 0 0 0
14418 3 6.2350843698764615 46.797765548107066 1.5454401246682787 0 0 0
14424 3 9.35262696839662 46.797765548107066 1.5454401246682796 0 0 0
14430 3 12.470169566916775 46.797765548107066 1.5454401246682803 0 0 0
14436 3 15.58771216543693 46.797765548107066 1.5454401246682794 0 0 0
14442 3 18.705254763957072 46.797765548107066 1.5454401246682792 0 0 0
14448 3 21.82279736247722 46.797765548107066 1.5454401246682787 0 0 0
14454 3 24.940339960997377 46.797765548107066 1.5454401246682792 0 0 0
14460 3 28.057882559517537 46.797765548107066 1.545440124668278 0 0 0
16205 3 1.5587704709778671 49.4976366358295 1.5454401246662797 0 0 0
16211 3 4.676313069498103 49.4976366358295 1.545440124666292 0 0 0
16217 3 7.793855668018281 49.49763663582952 1.5454401246662974 0 0 0
16223 3 10.911398266538438 49.49763663582952 1.5454401246662972 0 0 0
16229 3 14.02894086505859 49.4976366358295 1.5454401246662952 0 0 0
16235 3 17.146483463578747 49.49763663582952 1.5454401246662983 0 0 0
16241 3 20.264026062098893 49.49763663582952 1.5454401246662952 0 0 0
16247 3 23.381568660619042 49.49763663582952 1.5454401246662979 0 0 0
16253 3 26.499111259139188 49.49763663582952 1.5454401246662959 0 0 0
16212 3 3.1175417713562696 52.19750772355144 1.5454401246682614 0 0 0
16218 3 6.235084369876458 52.19750772355144 1.5454401246682792 0 0 0
16224 3 9.352626968396626 52.19750772355145 1.5454401246682758 0 0 0
16230 3 12.470169566916775 52.19750772355144 1.5454401246682798 0 0 0
16236 3 15.58771216543693 52.19750772355144 1.5454401246682805 0 0 0
16242 3 18.705254763957072 52.19750772355145 1.5454401246682763 0 0 0
16248 3 21.82279736247722 52.19750772355145 1.5454401246682745 0 0 0
16254 3 24.940339960997377 52.19750772355145 1.5454401246682763 0 0 0
16260 3 28.057882559517537 52.19750772355144 1.545440124668278 0 0 0
18005 3 1.5587704709778638 54.89737881127389 1.5454401246662781 0 0 0
18011 3 4.676313069498103 54.89737881127388 1.5454401246662917 0 0 0
18017 3 7.79385566801828 54.89737881127388 1.545440124666294 0 0 0
18023 3 10.911398266538441 54.89737881127388 1.545440124666294 0 0 0
18029 3 14.02894086505859 54.89737881127388 1.545440124666294 0 0 0
18035 3 17.146483463578743 54.89737881127388 1.545440124666295 0 0 0
18041 3 20.264026062098882 54.89737881127388 1.5454401246662925 0 0 0
18047 3 23.381568660619042 54.89737881127388 1.545440124666294 0 0 0
18053 3 26.49911125913919 54.89737881127388 1.5454401246662937 0 0 0
9010 2 3.1175417713561924 30.598539021773973 4.663253208597632 0 0 0
18056 1 28.05788255847361 55.79733584051746 3.104346666734176 0 0 0
9016 2 6.235084369876397 30.59853902177396 4.663253208597657 0 0 0
18050 1 24.940339959953455 55.79733584051746 3.104346666734179 0 0 0
9022 2 9.352626968396569 30.59853902177396 4.663253208597659 0 0 0
18044 1 21.822797361433306 55.79733584051746 3.104346666734174 0 0 0
9028 2 12.47016956691672 30.59853902177396 4.663253208597658 0 0 0
18038 1 18.705254762913164 55.79733584051746 3.104346666734181 0 0 0
9034 2 15.587712165436857 30.59853902177396 4.663253208597658 0 0 0
18032 1 15.587712164393015 55.79733584051746 3.1043466667341777 0 0 0
9040 2 18.705254763957026 30.59853902177397 4.663253208597661 0 0 0
18026 1 12.470169565872858 55.79733584051746 3.104346666734181 0 0 0
9046 2 21.822797362477175 30.59853902177396 4.663253208597657 0 0 0
18020 1 9.352626967352709 55.79733584051746 3.1043466667341737 0 0 0
9052 2 24.94033996099734 30.59853902177396 4.663253208597658 0 0 0
18014 1 6.2350843688325375 55.79733584051746 3.104346666734176 0 0 0
9058 2 28.057882559517477 30.59853902177396 4.663253208597659 0 0 0
18008 1 3.117541770312325 55.79733584051744 3.1043466667341626 0 0 0
10803 2 1.5587704709777912 33.298410109496466 4.663253208599523 0 0 0
9001 1 1.55877047202275 31.498496051019906 3.1043466667339894 0 0 0
10809 2 4.676313069498031 33.298410109496466 4.663253208599563 0 0 0
9007 1 4.676313070542827 31.498496051019853 3.1043466667340294 0 0 0
10815 2 7.7938556680182165 33.298410109496466 4.663253208599569 0 0 0
9013 1 7.793855669063009 31.498496051019867 3.1043466667340347 0 0 0
10821 2 10.911398266538368 33.298410109496466 4.66325320859957 0 0 0
9019 1 10.911398267583172 31.498496051019867 3.1043466667340347 0 0 0
10827 2 14.028940865058521 33.298410109496466 4.66325320859957 0 0 0
9025 1 14.028940866103326 31.498496051019867 3.104346666734032 0 0 0
10833 2 17.14648346357869 33.298410109496466 4.66325320859957 0 0 0
9031 1 17.14648346462347 31.498496051019867 3.1043466667340325 0 0 0
10839 2 20.26402606209884 33.298410109496466 4.663253208599569 0 0 0
9037 1 20.26402606314362 31.498496051019867 3.1043466667340325 0 0 0
10845 2 23.381568660618978 33.298410109496466 4.663253208599569 0 0 0
9043 1 23.381568661663774 31.498496051019867 3.104346666734034 0 0 0
10851 2 26.499111259139138 33.298410109496466 4.663253208599568 0 0 0
9049 1 26.499111260183927 31.498496051019867 3.1043466667340303 0 0 0
10808 1 3.1175417703123256 34.198367138740004 3.1043466667341617 0 0 0
10810 2 3.1175417713561973 35.99828119721834 4.663253208597629 0 0 0
10814 1 6.235084368832538 34.198367138740004 3.104346666734176 0 0 0
10816 2 6.235084369876397 35.99828119721831 4.663253208597653 0 0 0
10820 1 9.352626967352709 34.198367138740004 3.104346666734174 0 0 0
10822 2 9.352626968396569 35.99828119721831 4.663253208597657 0 0 0
10826 1 12.470169565872858 34.198367138740004 3.104346666734179 0 0 0
10828 2 12.47016956691672 35.99828119721831 4.6632532085976575 0 0 0
10832 1 15.587712164393015 34.198367138740004 3.1043466667341777 0 0 0
10834 2 15.587712165436857 35.99828119721831 4.6632532085976575 0 0 0
10838 1 18.705254762913164 34.198367138740004 3.104346666734179 0 0 0
10840 2 18.705254763957026 35.99828119721831 4.663253208597658 0 0 0
10844 1 21.822797361433306 34.198367138740004 3.1043466667341733 0 0 0
10846 2 21.822797362477175 35.99828119721831 4.663253208597656 0 0 0
10850 1 24.940339959953455 34.198367138740004 3.104346666734178 0 0 0
10852 2 24.94033996099734 35.99828119721831 4.663253208597657 0 0 0
10856 1 28.05788255847361 34.198367138740004 3.104346666734176 0 0 0
10858 2 28.057882559517477 35.99828119721831 4.663253208597656 0 0 0
12603 2 1.5587704709777899 38.69815228494081 4.663253208599521 0 0 0