LAMMPS data file via write_data, version 21 Nov 2023, timestep = 316, units = metal

28330 atoms
3 atom types

0 935.2611742721439 xlo xhi
0 86.39572718958748 ylo yhi
0 50 zlo zhi
0 0 0 xy xz yz

Masses

1 95.94
2 32.065
3 32.065

Atoms # atomic

28330 3 1.5587637572925332 0.8999789147163817 1.5454202116872269 0 0 0
20802 3 4.67627326004001 0.8999467781840051 1.5455745792839721 0 0 0
20801 3 7.793798134024475 0.899933465504745 1.5455421201509 0 0 0
20800 3 10.911346681815209 0.8999608084701873 1.545487707602004 0 0 0
20799 3 14.028893225674043 0.8999667120883876 1.5454561961445867 0 0 0
20798 3 17.146442013189326 0.8999692983281816 1.5454347668322657 0 0 0
20797 3 20.2639913068564 0.8999723005852257 1.5454268002876483 0 0 0
20796 3 23.381536351822994 0.899971606678623 1.5454336734247138 0 0 0
20795 3 26.499075239962803 0.8999700354340684 1.545448841622662 0 0 0
20794 3 3.1175180390175212 3.5997925911556337 1.545569007707348 0 0 0
20793 3 6.235053981153626 3.599824713990492 1.545538864709158 0 0 0
20792 3 9.352576476558099 3.5998180865875056 1.5455033033129733 0 0 0
20791 3 12.470121649574567 3.5998333310741786 1.5454686423074433 0 0 0
20790 3 15.58767568826719 3.5998354859144444 1.5454504821901769 0 0 0
20789 3 18.705224403612988 3.5998449654938027 1.545444925263712 0 0 0
20788 3 21.822770056522778 3.599855950450942 1.5454484411432627 0 0 0
20787 3 24.940303283321384 3.5998496125279966 1.54545747139864 0 0 0
20786 3 28.05783177250272 3.5998473317020077 1.5454700906081362 0 0 0
20803 3 1.558751971642141 6.29968790937602 1.5455547262531597 0 0 0
20805 3 4.676287137716485 6.299678049492077 1.5455492257685368 0 0 0
20824 3 7.793835051758052 6.299705732844639 1.5455396960675354 0 0 0
20806 3 10.911333890356362 6.29971111027786 1.5454977664660048 0 0 0
20823 3 14.02890732390282 6.299698587437319 1.5454593221222224 0 0 0
20822 3 17.146462131868983 6.299709788152006 1.5454645413393917 0 0 0
20821 3 20.264006465101524 6.299722397271568 1.5454795809843056 0 0 0
20820 3 23.381554210425488 6.299747712507617 1.5455082063559822 0 0 0
20819 3 26.499040824758694 6.299740704406173 1.5455117594684895 0 0 0
20818 3 3.1175169117984156 8.999547038512306 1.545546535157273 0 0 0
20817 3 6.235077207033339 8.999542558027086 1.5455421542324794 0 0 0
20816 3 9.35258768911149 8.999542377793256 1.5453785302192857 0 0 0
20815 3 12.470115489305572 8.999559465843655 1.5454782210243017 0 0 0
20814 3 15.587693176574732 8.999569855828247 1.545472496171836 0 0 0
20813 3 18.70524632535523 8.99957781545008 1.545499151404261 0 0 0
20812 3 21.822804675675123 8.999588509193108 1.5455412818340395 0 0 0
20811 3 24.94029855582759 8.999589106085603 1.5454251274936397 0 0 0
20810 3 28.057785593472158 8.999582438046684 1.5455342834827515 0 0 0
20809 3 1.5587058721997102 11.699413120326382 1.5455637931470791 0 0 0
20808 3 4.676270302668968 11.69939753820485 1.5455125850723304 0 0 0
20807 3 7.7938310228934045 11.69936837293604 1.5454995276761645 0 0 0
20785 3 10.91136492762441 11.69938481939518 1.545477177389375 0 0 0
20784 3 14.028929764474126 11.699423525140503 1.5454700828382728 0 0 0
20783 3 17.146479611589676 11.699436982586642 1.545502028350044 0 0 0
20782 3 20.26401210582136 11.699434207825956 1.5455283056275093 0 0 0
20760 3 23.381548023012925 11.699411791422207 1.5455719653327487 0 0 0
20759 3 26.499061748323538 11.699427666460156 1.5455880592096243 0 0 0
20758 3 3.1175010986324105 14.399260123334583 1.5455064759648949 0 0 0
20757 3 6.235055888017213 14.399255751007914 1.5454699495320585 0 0 0
20756 3 9.352606657315707 14.399265937334754 1.5454535750122358 0 0 0
20755 3 12.4701579785261 14.399272977315682 1.5454613585442973 0 0 0
20754 3 15.587712061257012 14.399284292687819 1.545489346768823 0 0 0
20761 3 18.7052683986824 14.39930756242077 1.5455387943265946 0 0 0
20753 3 21.822766556886634 14.399300654027853 1.5455649962416476 0 0 0
20751 3 24.94032466079888 14.399284739277883 1.5455822928004594 0 0 0
20750 3 28.057807046978127 14.399274398817472 1.545443944982646 0 0 0
20749 3 1.5587307685459344 17.099115822896298 1.5455046120181 0 0 0
20748 3 4.676279694338479 17.099125560440335 1.545458573980381 0 0 0
20747 3 7.793837757925479 17.09913253985935 1.54543698425264 0 0 0
20746 3 10.911390265108025 17.099138711919927 1.5454434747181602 0 0 0
20745 3 14.02894017303306 17.099138664194086 1.5454624044283747 0 0 0
20752 3 17.14650601547246 17.09914117639035 1.5455057764173368 0 0 0
20762 3 20.26401059783149 17.099132145489566 1.5454096522007195 0 0 0
20763 3 23.38150442438083 17.099134049893795 1.5455566099385234 0 0 0
20764 3 26.49905681224997 17.0990985616707 1.545561553781021 0 0 0
20781 3 3.1175069183553945 19.798991762808235 1.5454491682715472 0 0 0
20780 3 6.235063916893638 19.799002369302272 1.5454174352467926 0 0 0
20779 3 9.352621028029677 19.799008728145566 1.5454227495195256 0 0 0
20778 3 12.470161571393868 19.79901021368107 1.5454416916257459 0 0 0
20777 3 15.587700567811112 19.79900442460131 1.5454544182827101 0 0 0
20776 3 18.70524803072671 19.798968561243314 1.5454929388586258 0 0 0
20775 3 21.82275691131341 19.7989587118931 1.5455154569471785 0 0 0
20774 3 24.940294572533908 19.798977197818797 1.5455056040123085 0 0 0
20773 3 28.05781677393375 19.79898197634069 1.5454974062087916 0 0 0
20772 3 1.5587418316119128 22.498866731902762 1.5454421613370983 0 0 0
20771 3 4.676290910884267 22.498877725579213 1.5454113946328623 0 0 0
20770 3 7.793848836073685 22.498887127861966 1.5454094018905589 0 0 0
20769 3 10.911393638631317 22.498887343106194 1.5454326663352937 0 0 0
20768 3 14.028926093663262 22.49888497906922 1.5454473203199834 0 0 0
20767 3 17.146463604663662 22.49887141545927 1.545452495837032 0 0 0
20766 3 20.26399468863825 22.498861813874825 1.5454613040686513 0 0 0
20765 3 23.3815222823165 22.49884875799311 1.5454661990467327 0 0 0
20804 3 26.499055419288396 22.498852856140577 1.545462014529112 0 0 0
20825 3 3.1175223973129125 25.198754196379145 1.545421387155844 0 0 0
20826 3 6.235073955002456 25.19876440690231 1.5454173554449608 0 0 0
20827 3 9.35262280328655 25.198766159924123 1.5454335714636356 0 0 0
20886 3 12.470157583360773 25.198761005178937 1.5454518015727001 0 0 0
20885 3 15.587689457663311 25.1987570366984 1.5454557372300437 0 0 0
20884 3 18.705221033723515 25.198752408604694 1.5454537858205348 0 0 0
20883 3 21.82275297475516 25.19874230177157 1.5454494640458507 0 0 0
20882 3 24.940284372553677 25.19873510410633 1.5454378909703572 0 0 0
20881 3 28.05782501996904 25.19873542856959 1.5454234639868492 0 0 0
20880 3 1.5587528820337448 27.898626195898473 1.5454365102974537 0 0 0
20879 3 4.676303203902887 27.89863106319094 1.5454346943547306 0 0 0
20878 3 7.7938512098101 27.898634726884204 1.54544438718781 0 0 0
20877 3 10.911394968209606 27.898638794479982 1.545459695859246 0 0 0
20876 3 14.028922791024002 27.89863330859015 1.5454668008962351 0 0 0
20875 3 17.146449196485737 27.8986372806503 1.545467759005147 0 0 0
20874 3 20.263982718151883 27.898628224276948 1.545461322190276 0 0 0
20873 3 23.381513627335803 27.898622655866244 1.5454451385169996 0 0 0
20872 3 26.499052550135055 27.89861984409503 1.545422346816146 0 0 0
6681 1 3.1174464605685457 1.7998556754121273 3.104474614485326 0 0 0
17563 2 4.676291905148837 0.8999559196201055 4.663347275927918 0 0 0
6683 1 6.2350538012521115 1.799920942217018 3.10444958172606 0 0 0
17562 2 7.793842725968842 0.899956007184092 4.663334783006633 0 0 0
6684 1 9.352593019039908 1.7999054720075847 3.1044132694132496 0 0 0
6685 1 12.470134097023578 1.7999192325558055 3.10437709148733 0 0 0
17470 2 10.911382776489628 0.8999624242614388 4.6633039103117815 0 0 0
6687 1 15.587677741986646 1.799918588165034 3.104352469923074 0 0 0
17469 2 14.028918125036888 0.8999622300103334 4.663269777017764 0 0 0
17468 2 17.146456063269593 0.8999590265215779 4.663248368600571 0 0 0
6669 1 18.70522027170083 1.7999203722915238 3.1043388896602853 0 0 0
17448 2 20.263991853361713 0.8999605654525364 4.663240180757703 0 0 0
6653 1 21.822762040992853 1.7999246838170568 3.104338776887724 0 0 0
17373 2 23.38152454411741 0.8999603041692043 4.663247287474878 0 0 0
6655 1 24.94029934052458 1.7999229000993813 3.104351295128501 0 0 0
17372 2 26.499060505822083 0.8999594856604587 4.663262678494064 0 0 0
6656 1 28.05783522515404 1.7999225372864889 3.1043661276225163 0 0 0
6657 1 1.558759991622249 4.4997801328773255 3.1044648504153765 0 0 0
6658 1 4.676293365905273 4.499765828564219 3.1044580074105346 0 0 0
17371 2 3.1175310066699016 3.599806358933551 4.663361613074511 0 0 0
6660 1 7.7938379684571295 4.499783271738666 3.1044319527834863 0 0 0
17370 2 6.235078858573579 3.5998279341838035 4.663357229840687 0 0 0
17369 2 9.352618709421698 3.599821140597065 4.663318779538952 0 0 0
6662 1 10.911359463794371 4.499785050399534 3.1043888697844975 0 0 0
17368 2 12.470147197410459 3.5998319559066134 4.663281681588788 0 0 0
6664 1 14.028908291608099 4.499784332856517 3.1043642887658978 0 0 0
17367 2 15.587684290601786 3.5998255381550788 4.663264257425704 0 0 0
6666 1 17.146451582936074 4.49978634137363 3.1043581789189845 0 0 0
6667 1 20.26399364177319 4.499790012767367 3.1043623947512407 0 0 0
17366 2 18.705221850006218 3.5998203160308972 4.663258638094564 0 0 0
6689 1 23.381538069313844 4.4997978509124055 3.1043698924210568 0 0 0
17365 2 21.822762633133948 3.5998223700059158 4.663261351490298 0 0 0
6691 1 26.49905798330978 4.499796638276239 3.104379892327316 0 0 0
17364 2 24.940293040538094 3.5998203969937577 4.663273587759012 0 0 0
17363 2 28.057825609816504 3.5998254690890734 4.663283372767793 0 0 0
17362 2 1.5587591552994327 6.299691538041361 4.663373231157204 0 0 0
6716 1 3.1175261270977184 7.199640774688442 3.1044602064810176 0 0 0
17361 2 4.6762993463467675 6.299682700238061 4.6633653182290145 0 0 0
6718 1 6.235061729239587 7.199637290802237 3.104449095901536 0 0 0
17360 2 7.793859056379794 6.299691630566408 4.663333401872252 0 0 0
6720 1 9.352602164005422 7.199736793839862 3.104429142658228 0 0 0
6728 1 12.470141429231486 7.199644318087108 3.1043749802883505 0 0 0
17359 2 10.911381128565466 6.299690606662588 4.66329108992407 0 0 0
6722 1 15.58768220771549 7.199650423606268 3.104369616268193 0 0 0
17374 2 14.028915389002858 6.2996914956617065 4.663275728470791 0 0 0
17375 2 17.146446668076386 6.29968723299301 4.663278552637976 0 0 0
6725 1 18.70522582528361 7.199653658671215 3.10438880577017 0 0 0
17376 2 20.263985202881834 6.29967952875918 4.6632962263401065 0 0 0
6727 1 21.822762738365707 7.199655591395871 3.1044125219830403 0 0 0
17377 2 23.381534173125655 6.299678824311009 4.663302215667538 0 0 0
6719 1 24.940297245785054 7.199750860766307 3.104437846536171 0 0 0
17391 2 26.4990579176771 6.299682885796416 4.663306041758457 0 0 0
6710 1 28.05782979035794 7.1996538185594465 3.104413631249065 0 0 0
6699 1 1.5587525108800855 9.899505062996191 3.1044601672179373 0 0 0
6692 1 4.676301376751029 9.899505891009408 3.104438063397216 0 0 0
17390 2 3.117535970256634 8.99955810811478 4.66336157480641 0 0 0
6694 1 7.793914601994813 9.899454718714292 3.1044303943974336 0 0 0
17389 2 6.235081481380661 8.9995662491408 4.663335659778705 0 0 0
6697 1 10.911295507229546 9.899459729535991 3.104392571777238 0 0 0
17388 2 12.470140279050772 8.999560031068564 4.663272986423742 0 0 0
6700 1 14.02890565078396 9.899512377949748 3.104371634609293 0 0 0
17387 2 15.587671497214131 8.999554573977656 4.663285415304976 0 0 0
6701 1 17.146458055273502 9.899516844628083 3.1043983217725692 0 0 0
6702 1 20.26400542159769 9.899521431424935 3.1044276009969756 0 0 0
17386 2 18.705218210422412 8.999552001170342 4.663312429332343 0 0 0
6703 1 23.38161188659079 9.899474882642725 3.104474241088078 0 0 0
17392 2 21.822757380017443 8.999553731132995 4.663335100111514 0 0 0
6705 1 26.498989364139316 9.899477506067477 3.1044690001954205 0 0 0
17384 2 28.057835313751056 8.9995545537069 4.66333127009206 0 0 0
17383 2 1.5587677328300098 11.699423723532595 4.663358146612861 0 0 0
6887 1 3.1175138241240625 12.599367796203314 3.104430084395173 0 0 0
17382 2 4.676305749156909 11.6994283607806 4.6633278646149545 0 0 0
6810 1 6.235063946774738 12.599354688100098 3.1043929788418825 0 0 0
17381 2 7.793842465834462 11.69941992509472 4.663292633631108 0 0 0
6909 1 9.352604569004852 12.599366664286379 3.104373978509243 0 0 0
6911 1 12.470144323822941 12.599360216963634 3.104368485141784 0 0 0
17380 2 10.91137932525195 11.699410137147384 4.663271808637881 0 0 0
6913 1 15.587689619249572 12.599375219726868 3.104396129010318 0 0 0
17379 2 14.028906260532764 11.699414662960912 4.663286029772905 0 0 0
17378 2 17.14644939055694 11.699421651949862 4.663315396537428 0 0 0
6917 1 18.705238013130987 12.59938519815102 3.1044280710812937 0 0 0
17358 2 20.263985783543372 11.699419579330176 4.663347436555562 0 0 0
6925 1 21.82276076963816 12.599375850644012 3.1044541454243695 0 0 0
17385 2 23.381513611204205 11.699415861830321 4.66336786231649 0 0 0
6919 1 24.940294727258152 12.59937902959929 3.1044821844150094 0 0 0
17357 2 26.499077247734117 11.699407096280428 4.663363248137105 0 0 0
6920 1 28.057823050647883 12.599456798626528 3.1044783661790265 0 0 0
6921 1 1.5587496479711496 15.299217095053942 3.104428953818422 0 0 0
6922 1 4.676295756712835 15.29922719476792 3.1043835489739693 0 0 0
17346 2 3.117544332279841 14.399288655869222 4.663322352739292 0 0 0
6924 1 7.793837491923769 15.299230324931242 3.104357891510218 0 0 0
17334 2 6.235079894741877 14.399283983908582 4.6632826264040474 0 0 0
17333 2 9.352609875881166 14.399286402383847 4.663269574082831 0 0 0
6907 1 10.911379274789406 15.299232488896203 3.104358039013177 0 0 0
17332 2 12.470140486728036 14.399277718786568 4.663274172826587 0 0 0
6905 1 14.028921809212381 15.299234408914254 3.104378325923606 0 0 0
17331 2 15.58767683201407 14.399285942613696 4.663305820719589 0 0 0
6891 1 17.146463135051714 15.299238598853144 3.1044148902162094 0 0 0
6892 1 20.264004298137365 15.299331204679815 3.1044637972633864 0 0 0
17330 2 18.705226088201773 14.399290088418068 4.663332647402168 0 0 0
6893 1 23.381541075406517 15.29923931896777 3.1044685409700614 0 0 0
17329 2 21.822753987839146 14.399283270049871 4.663357597675023 0 0 0
6895 1 26.499140834192488 15.299189951605163 3.104493940749385 0 0 0
17328 2 24.940298202107627 14.399294565087331 4.663381828996551 0 0 0
17327 2 1.5587771639537984 17.09915028112841 4.663317421189955 0 0 0
6900 1 3.1175249115718944 17.999093703373706 3.1043766483670847 0 0 0
17326 2 4.6763156695882255 17.099155749313205 4.663271822293239 0 0 0
6902 1 6.235068071386402 17.999099392354086 3.104339754578854 0 0 0
17325 2 7.793841294976987 17.09915556852661 4.66325020466669 0 0 0
6903 1 9.352611307695202 17.99910137414685 3.104338620980644 0 0 0
6916 1 12.470155844404982 17.999101823012268 3.1043546487743257 0 0 0
17324 2 10.911376675067531 17.099152938669487 4.663256716746253 0 0 0
6926 1 15.587703053945978 17.99910474639639 3.1043736523326517 0 0 0
17323 2 14.028918763704139 17.09915616816675 4.663275104381677 0 0 0
17322 2 17.14645305821829 17.099166299335515 4.6633000470263575 0 0 0
6949 1 18.705310483542316 17.99905545952742 3.104424228231519 0 0 0
6951 1 21.822680100650945 17.999052105239254 3.10445376951961 0 0 0
17335 2 23.381517356664453 17.09916544534747 4.663353235249881 0 0 0
6953 1 24.94028497217765 17.999092117042906 3.1044414220519694 0 0 0
17336 2 26.499054969245616 17.09915898040154 4.663354501595043 0 0 0
6954 1 28.05782278983152 17.9990998782785 3.104436508531201 0 0 0
6955 1 1.5587572618323633 20.698966145343544 3.10436801257582 0 0 0
6957 1 4.676297712993308 20.698967691525162 3.104326190220012 0 0 0
17337 2 3.1175475973692404 19.79902504380838 4.663262281999719 0 0 0
6958 1 7.793840566105358 20.69897106555161 3.1043164229505105 0 0 0
17338 2 6.2350751983745685 19.79902388034621 4.663230596753419 0 0 0
17354 2 9.352602843126675 19.799021472672024 4.663235901350028 0 0 0
6961 1 10.911383029675758 20.698971742498113 3.104337644209145 0 0 0
17353 2 12.470146044683778 19.799019597981555 4.663255063701188 0 0 0
6963 1 14.028924256601881 20.698970432479395 3.104353097626724 0 0 0
17352 2 15.587686127938328 19.799021001375962 4.663270236728293 0 0 0
6948 1 17.1464629783888 20.698958868738714 3.104364374489544 0 0 0
6956 1 20.263994311427783 20.69896705894082 3.1043896723041224 0 0 0
17351 2 18.705214494547544 19.79901950821829 4.663287167094631 0 0 0
6947 1 23.381525572867627 20.69895213335413 3.1043974867884465 0 0 0
17350 2 21.822756694510527 19.799023230078326 4.663309305779685 0 0 0
6929 1 26.499059360807863 20.698963191887994 3.1043984459493603 0 0 0
17349 2 24.940293281358908 19.7990261088207 4.663321364790087 0 0 0
17348 2 28.057837302902 19.79903415531903 4.663314262373133 0 0 0
17355 2 1.5587731568052332 22.49889367784858 4.6632556536648035 0 0 0
6934 1 3.1175277723521675 23.39883771723541 3.1043265827398527 0 0 0
17347 2 4.676306878856202 22.498885727728798 4.663224563302396 0 0 0
6937 1 6.23506974745272 23.398839861001175 3.104312250643156 0 0 0
17345 2 7.793834176298693 22.498882753389754 4.66322249797848 0 0 0
6945 1 9.35261247869084 23.398842571317093 3.104329091634812 0 0 0
6939 1 12.47015315296611 23.398841985574503 3.1043517417134394 0 0 0
17344 2 10.911372112045463 22.498883389959907 4.663245925903612 0 0 0
6941 1 15.587692613610136 23.398838049258302 3.104357468172461 0 0 0
17343 2 14.028918919828786 22.498881888846284 4.663260850039521 0 0 0
17342 2 17.146457468689817 22.49887810624308 4.663265490123153 0 0 0
6944 1 18.70522586522724 23.398836596658068 3.104360258588954 0 0 0
17341 2 20.263989626056944 22.498891049304046 4.663277916188785 0 0 0
6889 1 21.822759057835217 23.39883281288482 3.1043636503517087 0 0 0
17340 2 23.381525926471266 22.498887947117595 4.663279293985141 0 0 0
6888 1 24.940291212237298 23.39883134844866 3.1043601003355117 0 0 0
17339 2 26.49906526663769 22.498898864544405 4.663275978129996 0 0 0
6867 1 28.05782895675188 23.398834876560645 3.1043495281125177 0 0 0
6830 1 1.5587552008074677 26.098706402309165 3.104335716711825 0 0 0
6831 1 4.6762988910666365 26.09870826862281 3.104328750756055 0 0 0
17356 2 3.1175322551953037 25.19874816479123 4.663234657517785 0 0 0
6833 1 7.79384202339021 26.098710798673814 3.104337319384807 0 0 0
17393 2 6.235067484774022 25.19874253147728 4.663230552856088 0 0 0
17394 2 9.35260458328981 25.198746856634862 4.663246787207788 0 0 0
6836 1 10.9113843472217 26.09871472550855 3.104356015704217 0 0 0
17395 2 12.470147693873212 25.198749632815122 4.6632653729484295 0 0 0
6846 1 14.028921539572487 26.098712141242835 3.104365927109121 0 0 0
17446 2 15.587689380177 25.198747291205216 4.663269406553181 0 0 0
6840 1 17.146455370845786 26.098712622289046 3.104364707435312 0 0 0
6841 1 20.26399045209145 26.098707524455833 3.1043602227079083 0 0 0
17445 2 18.705223677379376 25.198748901464995 4.663267640011106 0 0 0
6842 1 23.381525145687036 26.098705468153792 3.1043485992569937 0 0 0
17444 2 21.822762624121896 25.198751021065984 4.663263314197456 0 0 0
6844 1 26.49906120918887 26.098704933027257 3.1043304072388604 0 0 0
17443 2 24.94030051701474 25.19875590714512 4.663251474964117 0 0 0
17442 2 28.05783642980054 25.19876092487821 4.663237013729882 0 0 0
17441 2 1.5587641876556422 27.89861265503195 4.6632500733542095 0 0 0
17433 2 14.028918701325757 27.89861634296382 4.66328291119645 0 0 0
17440 2 4.676299450175997 27.89861168144021 4.663248137550159 0 0 0
17436 2 20.26399336165626 27.898613398444397 4.663275279687263 0 0 0
17439 2 7.793838075937623 27.898612632905206 4.663257975109996 0 0 0
17434 2 17.14645191655811 27.898617861373076 4.663280963091557 0 0 0
17447 2 26.499071348167153 27.898617718758747 4.663235714101772 0 0 0
17435 2 10.911382159969838 27.898620045988928 4.663272637144398 0 0 0
17437 2 23.381535074248177 27.89861540678046 4.663258817829885 0 0 0
6633 1 3.117529703833837 28.79857560055406 3.1043447391411276 0 0 0
7328 1 7.592344784028672e-05 1.7998751122205823 3.1044679031043465 1 0 0
11671 2 5.211714874104444e-06 19.79902781099162 4.663306908795534 1 0 0
11652 2 1.4370516737683392e-06 14.399278165478158 4.663360028913569 1 0 0
20871 3 3.117529263365975 30.598492014851736 1.545443969412174 0 0 0
20870 3 6.23508085253526 30.59849412117736 1.54545017135846 0 0 0
20887 3 9.3526295535215 30.598498824403016 1.5454654352669817 0 0 0
20889 3 12.470180726380587 30.59852259939579 1.5454988534573384 0 0 0
20908 3 15.587668539515866 30.59852474609514 1.5455055945601455 0 0 0
20890 3 18.705213009367625 30.598504955649705 1.5454840108853203 0 0 0
20907 3 21.82274545662505 30.59849978655929 1.545469623602107 0 0 0
20906 3 24.94028044556445 30.59849871923315 1.5454450057243727 0 0 0
20905 3 28.057827648003983 30.59850111289487 1.5454260352792573 0 0 0
20904 3 1.5587497877486824 33.298353378628875 1.545448505080118 0 0 0
20589 3 4.676307836463311 33.298353122695936 1.5454455561325025 0 0 0
20588 3 7.793863250306855 33.29835559694403 1.5454588354037528 0 0 0
20587 3 10.911429117161065 33.298362563794036 1.5454990921140757 0 0 0
20594 3 14.028928211384214 33.298359758996185 1.5453932816489868 0 0 0
20586 3 17.146421993497107 33.298369698724 1.545521623966897 0 0 0
20584 3 20.263978900737804 33.298372470847625 1.5454926463563767 0 0 0
20583 3 23.38151065662621 33.298369365472894 1.5454708503342462 0 0 0
20582 3 26.49904639361754 33.29837460316413 1.5454465411135645 0 0 0
20581 3 3.1175295419325244 35.9982158082963 1.545439508981845 0 0 0
20580 3 6.235080409232154 35.998216055440025 1.5454471526719196 0 0 0
20579 3 9.352628444847081 35.99821351084552 1.5454627407651547 0 0 0
20578 3 12.470176725609685 35.998183366573095 1.5455063794031518 0 0 0
20585 3 15.587685031864558 35.99818585809974 1.5455221096882985 0 0 0
20595 3 18.705226962747673 35.99822504625215 1.545502220562956 0 0 0
20596 3 21.822771692154348 35.998254117317636 1.5455118152486973 0 0 0
20597 3 24.940260102061554 35.99825854723172 1.5454876564323274 0 0 0
20614 3 28.05782036299036 35.9982370671064 1.545446350326768 0 0 0
20613 3 1.5587563630197816 38.698079383377234 1.5454360621926289 0 0 0
20612 3 4.676305047491227 38.698079910059384 1.5454380909753294 0 0 0
20611 3 7.793850957338334 38.69807709738742 1.5454456570824937 0 0 0
20610 3 10.911400070163465 38.69806704375367 1.5454618129488973 0 0 0
20609 3 14.028935797718272 38.69806825565698 1.545483079286328 0 0 0
20608 3 17.146471177093492 38.6980731694354 1.5454948291389061 0 0 0
20607 3 20.264029441800783 38.69809377437345 1.5455185752408969 0 0 0
20606 3 23.38152252002335 38.69809733476777 1.5453837268147845 0 0 0
20605 3 26.499025532880186 38.69811068244854 1.5454847932593974 0 0 0
20604 3 3.117531326145405 41.39794606034676 1.5454329877313575 0 0 0
20603 3 6.235075008162121 41.39794369259234 1.5454330533308658 0 0 0
20602 3 9.352622635493098 41.39793980390163 1.5454378383501355 0 0 0
20601 3 12.470167471950042 41.39793804269238 1.5454551941438874 0 0 0
20600 3 15.587704909524353 41.39794000100631 1.5454743987533648 0 0 0
20599 3 18.705242258328884 41.39794679324733 1.5454871063389963 0 0 0
20598 3 21.8227822071941 41.397926989041295 1.545517451468742 0 0 0
20637 3 24.94028874718886 41.39794591122528 1.545512346372148 0 0 0
20658 3 28.057827056294368 41.39798307666763 1.5454847728235768 0 0 0
20659 3 1.5587623430153998 44.09781317680826 1.5454323950917286 0 0 0
20660 3 4.676302506620045 44.0978138549807 1.5454296349714967 0 0 0
20719 3 7.793845704305258 44.09781239058281 1.5454257903596227 0 0 0
20718 3 10.911393019186107 44.09780972719905 1.5454316042199148 0 0 0
20717 3 14.028937940488454 44.09780730204831 1.5454494617117553 0 0 0
20716 3 17.14648057752732 44.09781154411077 1.5454696552031766 0 0 0
20715 3 20.26402645708179 44.09782010779711 1.5454933908645359 0 0 0
20714 3 23.381549858752436 44.09783426878932 1.5455149515070614 0 0 0
20713 3 26.499069168277845 44.09785695978942 1.545527725847382 0 0 0
20712 3 3.117534947744705 46.797683613396835 1.545433274905937 0 0 0
20711 3 6.235073207685397 46.79768512701816 1.5454290294006157 0 0 0
20710 3 9.352615767232448 46.79768414529803 1.5454246236816334 0 0 0
20709 3 12.470162893735784 46.79767959186454 1.5454297525202993 0 0 0
20708 3 15.587712078489307 46.79767826348749 1.5454467755547177 0 0 0
20707 3 18.705263820344047 46.79768425674748 1.545477519950257 0 0 0
20706 3 21.822818587888598 46.79771890147448 1.5455378976595893 0 0 0
20705 3 24.940303570445245 46.797734009824076 1.545573532115223 0 0 0
20704 3 28.057854670991734 46.79773801504578 1.5455860676514173 0 0 0
20703 3 1.5587686384002353 49.49755153247882 1.5454363647457525 0 0 0
20720 3 4.676304637840897 49.497553279790374 1.5454372187609997 0 0 0
20722 3 7.793843430459924 49.49755433493128 1.5454325644518014 0 0 0
20741 3 10.911386854255115 49.49755320211048 1.5454287374402442 0 0 0
20723 3 14.028935504352049 49.49754972303236 1.5454331854793268 0 0 0
20740 3 17.146493200028665 49.49754791240923 1.5454540600325783 0 0 0
20739 3 20.26406462043368 49.497553278377524 1.5455139881092277 0 0 0
20738 3 23.38157601264861 49.4975539683811 1.5454399753588086 0 0 0
20737 3 26.499096443067042 49.49757587291685 1.5456134724569561 0 0 0
20736 3 3.11753615482942 52.197419182954995 1.545441419379785 0 0 0
20735 3 6.23507323880698 52.1974194807181 1.5454393672296591 0 0 0
20734 3 9.35261341996499 52.19741968307337 1.545435211575911 0 0 0
20733 3 12.470157102342359 52.19741808614018 1.5454333665148503 0 0 0
20732 3 15.587705179181517 52.19741473222165 1.5454391546106585 0 0 0
20731 3 18.70525861168994 52.19740842036009 1.5454625636658181 0 0 0
20730 3 21.82281378038036 52.19737639591021 1.5455269809657333 0 0 0
20729 3 24.940330654417313 52.19738146200477 1.545572752267742 0 0 0
20728 3 28.057882331653513 52.1974081747588 1.5456250215438274 0 0 0
20727 3 1.5587675107717789 54.89728510200964 1.5454421793787745 0 0 0
20726 3 4.676304243166594 54.89728496480372 1.5454414109477859 0 0 0
20725 3 7.7938417285298724 54.897285073257095 1.5454383862327743 0 0 0
20724 3 10.911382096273961 54.89728360555526 1.5454348613356832 0 0 0
20702 3 14.028925648578767 54.89728037814183 1.5454331015885163 0 0 0
20721 3 17.14647645400508 54.89727601870186 1.5454408162890438 0 0 0
20701 3 20.26403192039065 54.89726333187799 1.5454709067051706 0 0 0
20679 3 23.381575415968246 54.89726139480959 1.5455169768275487 0 0 0
20677 3 26.499126911645803 54.897257126321605 1.5455795279570692 0 0 0
17850 2 3.117532306533825 30.59848419819982 4.663257572907754 0 0 0
17849 2 6.235069332584925 30.598486151112276 4.663263889929157 0 0 0
17863 2 9.352606234314399 30.598484691120323 4.663281943322453 0 0 0
17864 2 12.470154042549593 30.598483276965602 4.663292993295198 0 0 0
17865 2 15.58768014679933 30.598480552391717 4.663299761854171 0 0 0
17866 2 18.705227523190352 30.598481862802494 4.663300712319958 0 0 0
17882 2 21.822765208344418 30.59848387063523 4.663283553360358 0 0 0
17881 2 24.940304235537575 30.59848320680581 4.663258549286748 0 0 0
17880 2 28.057833999704535 30.59848222717545 4.663239228542153 0 0 0
6453 1 1.5587584749385612 31.49844159426911 3.1043551032887273 0 0 0
17879 2 1.5587669685821868 33.298353582036604 4.663262233144533 0 0 0
6475 1 4.676302831425512 31.498442769264482 3.10435316392698 0 0 0
17878 2 4.676301194688063 33.298355477295765 4.663259164416087 0 0 0
6477 1 7.7938473817146345 31.498444668507126 3.1043658126978118 0 0 0
17877 2 7.793843130022358 33.29835695160261 4.663271948292569 0 0 0
6479 1 10.911385599162005 31.498445442803387 3.1043904006537297 0 0 0
17876 2 10.911378165722683 33.29835966193659 4.663293028983046 0 0 0
6481 1 14.028921119163428 31.498539372716714 3.1044235839028023 0 0 0
6483 1 17.146454408455373 31.498447579301953 3.1044066857230335 0 0 0
17875 2 17.146455173099643 33.29835727193512 4.663315579938595 0 0 0
6484 1 20.263987833393703 31.49845147025205 3.1043909450054143 0 0 0
17873 2 20.263994864970474 33.298358794072634 4.6633052027220625 0 0 0
6486 1 23.381523742313927 31.49844947246875 3.104370188748073 0 0 0
17872 2 23.381534984359128 33.298354692571806 4.663286716588471 0 0 0
6487 1 26.49906058590442 31.49845076893841 3.1043441760221677 0 0 0
17871 2 26.49906716980657 33.29835748903573 4.663259147349197 0 0 0
6488 1 3.1175310284191005 34.198306673680946 3.1043488510411135 0 0 0
17870 2 3.1175288984254683 35.99821997946588 4.663253097842588 0 0 0
6490 1 6.235077926365144 34.19830734222548 3.104356272376545 0 0 0
17869 2 6.2350693316748576 35.998220821670266 4.66326087215598 0 0 0
6482 1 9.352627169377412 34.198311429080626 3.1043752876366066 0 0 0
17868 2 9.352607563083355 35.998222164881426 4.663278984835039 0 0 0
6462 1 12.470235879846737 34.198262493434555 3.104425502416393 0 0 0
17867 2 12.470141277022307 35.9982185646578 4.663300321239495 0 0 0
6455 1 15.587606728490451 34.19826418175587 3.104440279880905 0 0 0
17772 2 15.587691580138078 35.998220136168854 4.663316051200904 0 0 0
6457 1 18.705212974701773 34.198317985752176 3.1044094053924174 0 0 0
17846 2 18.705224952350182 35.998222273202 4.663321554871723 0 0 0
6459 1 21.822761214117293 34.19832339470827 3.1043948069005407 0 0 0
17771 2 21.822773399435775 35.998223222923045 4.663305800917932 0 0 0
6461 1 24.94028432817653 34.198324909089195 3.1043694769656516 0 0 0
17693 2 24.94030049145846 35.99822335118907 4.6632812383785165 0 0 0
6463 1 28.05783020413238 34.1983180624088 3.1043480059079402 0 0 0
17671 2 28.057839547982688 35.99822309960947 4.663262394209128 0 0 0
6465 1 1.55875547571074 36.898170014804634 3.1043456317360563 0 0 0
17670 2 1.5587620551363146 38.69808366563093 4.663249720085535 0 0 0
6467 1 4.6763020885484385 36.89817113940644 3.104347487272122 0 0 0
17669 2 4.676300788985722 38.69808526428326 4.663251739774087 0 0 0
6469 1 7.793846858870752 36.898171338908156 3.1043587991646255 0 0 0
17668 2 7.793841572579786 38.6980878346787 4.663259440716602 0 0 0
6415 1 10.91138908596871 36.8981618839262 3.1043788085952353 0 0 0
17667 2 10.911378765810335 38.69808514785933 4.663274962633654 0 0 0
6413 1 14.028923745675918 36.89817360546126 3.10440751478003 0 0 0