LAMMPS data file via write_data, version 21 Nov 2023, timestep = 22203, units = metal

27900 atoms
3 atom types

0 935.2596408878387 xlo xhi
0 86.3955857353298 ylo yhi
0 50 zlo zhi
0 0 0 xy xz yz

Masses

1 95.94
2 32.065
3 32.065

Atoms # atomic

27900 3 1.558735997235144 0.8999890431224042 1.5453699609827263 0 0 0
20372 3 4.676224582511109 0.8999887130333026 1.5454703434426358 0 0 0
20371 3 7.793783160494735 0.8999835277949751 1.545419730047153 0 0 0
20370 3 10.911318616235576 0.8999733142347812 1.5453920896162103 0 0 0
20369 3 14.028853810098514 0.8999699881973199 1.5453751618106488 0 0 0
20368 3 17.146399854158066 0.8999551795719105 1.5453669322245682 0 0 0
20367 3 20.2639470815551 0.8999460124999465 1.545370997138058 0 0 0
20366 3 23.381494756014156 0.8999394237957179 1.5453920095246931 0 0 0
20365 3 26.49904683940429 0.8999332513392483 1.5454297924426093 0 0 0
20364 3 3.1174732071466047 3.5998290347898214 1.5455163084856278 0 0 0
20363 3 6.23502188875951 3.5998530877239507 1.5454643424712615 0 0 0
20362 3 9.352571011243402 3.599872609232461 1.5454557904164812 0 0 0
20361 3 12.470059641116517 3.5998676970520935 1.5454278863485431 0 0 0
20360 3 15.587613450056274 3.5998351729153812 1.5453833628236195 0 0 0
20359 3 18.70516432887567 3.5998237069773142 1.5453698588330749 0 0 0
20358 3 21.82271395782532 3.599815225269936 1.5453743428145064 0 0 0
20357 3 24.94026432789006 3.599807374964551 1.5453964840421968 0 0 0
20356 3 28.057814979617934 3.599798077042849 1.5454424376946698 0 0 0
20373 3 1.5587185641347483 6.299736911905308 1.545563152634819 0 0 0
20375 3 4.676256258488097 6.299717167968186 1.5455157994733082 0 0 0
20394 3 7.793816259411424 6.299722536544343 1.5455049176571856 0 0 0
20376 3 10.911308775442595 6.299712839371301 1.5453511900492927 0 0 0
20393 3 14.02880660070961 6.2997110962680765 1.5454391328680834 0 0 0
20392 3 17.146375677165196 6.29969806490422 1.545388278847153 0 0 0
20391 3 20.263932736951368 6.299690507349264 1.5453773970575149 0 0 0
20390 3 23.38148266119049 6.299684922390488 1.5453833668161667 0 0 0
20389 3 26.49903846075218 6.299675583250451 1.5454115060759241 0 0 0
20388 3 3.1174678775196174 8.99959658944175 1.5455922019826254 0 0 0
20387 3 6.235018809602423 8.999590343232628 1.5455359918375806 0 0 0
20386 3 9.352549930213025 8.999559117418281 1.545525389477779 0 0 0
20385 3 12.470050883654809 8.999549696898256 1.5454895978236998 0 0 0
20384 3 15.587603854705753 8.999567104722566 1.5454225454791706 0 0 0
20383 3 18.705156289727785 8.999564247416668 1.545397062876929 0 0 0
20382 3 21.82270621927596 8.999561015485142 1.545392014074736 0 0 0
20381 3 24.940250516560436 8.999553409532513 1.5454031086542075 0 0 0
20380 3 28.05779208997954 8.999538802885619 1.5454309748683719 0 0 0
20379 3 1.5587245236829246 11.699420005489904 1.5456460999180817 0 0 0
20378 3 4.676281791926231 11.699471506470921 1.5456176334633187 0 0 0
20377 3 7.79378382246675 11.699490593735652 1.545608394574316 0 0 0
20355 3 10.911270720125168 11.699462826728302 1.5455516152073314 0 0 0
20354 3 14.028822075873713 11.69942978063755 1.5454759887011937 0 0 0
20353 3 17.146378034397173 11.699434538039432 1.5454341801820075 0 0 0
20352 3 20.263932365612934 11.69943342938721 1.5454184481053432 0 0 0
20330 3 23.38148181305821 11.699439864769552 1.545422182434807 0 0 0
20329 3 26.499010736567726 11.699425099216596 1.5454343317699781 0 0 0
20328 3 3.1175307245003836 14.399306960121288 1.545663403161451 0 0 0
20327 3 6.235029829859592 14.399295312251057 1.5455166346129638 0 0 0
20326 3 9.352510622864234 14.399300999879731 1.5454881596278227 0 0 0
20325 3 12.470020234408231 14.399297806509301 1.5455497521691461 0 0 0
20324 3 15.587598250916798 14.399293356146899 1.5454770896555439 0 0 0
20331 3 18.70516025351096 14.399300121973624 1.5454517685023275 0 0 0
20323 3 21.822714481551127 14.399306912871861 1.5454521251073663 0 0 0
20321 3 24.940267415373533 14.399328570531761 1.5454842887847002 0 0 0
20320 3 28.05774766160592 14.399319858968068 1.5454952963589212 0 0 0
20319 3 1.558722211198197 17.099165122316105 1.5456872091808656 0 0 0
20318 3 4.676284230633026 17.099138209625465 1.5456926033376874 0 0 0
20317 3 7.793746444515743 17.099137433236407 1.5456521164070702 0 0 0
20316 3 10.911282272573317 17.0991092674409 1.5455875125105165 0 0 0
20315 3 14.02883827988658 17.09914920478922 1.545514260146639 0 0 0
20322 3 17.146394016953177 17.099161103243176 1.5454847676410262 0 0 0
20332 3 20.263952925720815 17.099169981744723 1.5454808488838252 0 0 0
20333 3 23.381519093728024 17.09917987491942 1.545519695554995 0 0 0
20334 3 26.499010164824302 17.09917760562137 1.5454150628734347 0 0 0
20351 3 3.117501246223212 19.799002317050803 1.5457053408278356 0 0 0
20350 3 6.235001802147246 19.798990642363172 1.54553806688457 0 0 0
20349 3 9.352501728775962 19.79899528202243 1.545614787300026 0 0 0
20348 3 12.470063216515745 19.79899684357049 1.545546906693428 0 0 0
20347 3 15.587625119994595 19.799019510635596 1.545516117368102 0 0 0
20346 3 18.705178446671102 19.79903276871891 1.5455118434649568 0 0 0
20345 3 21.82273071851249 19.799043028781913 1.545529447136532 0 0 0
20344 3 24.940264959300404 19.799014200991166 1.5455786245891527 0 0 0
20343 3 28.05776357309469 19.799034887824497 1.5456054385648752 0 0 0
20342 3 1.5587524668396733 22.498840433007096 1.5457140362306674 0 0 0
20341 3 4.676244283319928 22.49884119926056 1.5456911958995032 0 0 0
20340 3 7.793760367686042 22.498821359708884 1.5456376132742429 0 0 0
20339 3 10.91131387097111 22.498863853584066 1.5455738069133989 0 0 0
20338 3 14.028861084209842 22.498874946241394 1.5455463827407345 0 0 0
20337 3 17.146413921816436 22.498901363525796 1.5455449163676753 0 0 0
20336 3 20.263966507440305 22.498904308659966 1.5455618642979134 0 0 0
20335 3 23.3815204838667 22.498924420216216 1.5456151073881936 0 0 0
20374 3 26.49902470206953 22.498928450849622 1.545660064069283 0 0 0
20395 3 3.117492636228817 25.198691866157645 1.5455598394362478 0 0 0
20396 3 6.234980582138835 25.198706105422218 1.5456487990209782 0 0 0
20397 3 9.35254222873631 25.19870757734928 1.545591534835447 0 0 0
20456 3 12.470119036213193 25.1987461760627 1.5455891942148288 0 0 0
20455 3 15.587629694530587 25.198760557950262 1.5455893046667601 0 0 0
20454 3 18.70522238813727 25.198771095223933 1.5456069352707051 0 0 0
20453 3 21.822753112501537 25.198784526840573 1.5456620359825388 0 0 0
20452 3 24.940244028323974 25.19874292171193 1.5455326006556827 0 0 0
20451 3 28.057737584730152 25.198740242503153 1.545716704049069 0 0 0
20450 3 1.5587252646966208 27.89854331128075 1.5457011841373036 0 0 0
20449 3 4.6762304700517685 27.898534189643122 1.5456512178348443 0 0 0
20448 3 7.793780675183957 27.8985660495267 1.5455919910494078 0 0 0
20447 3 10.911358402998022 27.8985714764303 1.545587191693625 0 0 0
20446 3 14.028882898714807 27.898571360725803 1.5454619784212864 0 0 0
20445 3 17.146420195334297 27.898582521292276 1.545614994653324 0 0 0
20444 3 20.263963176774293 27.898576268018566 1.5455045701853385 0 0 0
20443 3 23.381494717842113 27.89857729846012 1.5457177447584616 0 0 0
20442 3 26.49897327258157 27.898558338455764 1.5457211290613087 0 0 0
6681 1 3.1174243623674283 1.7998806098549847 3.104409293607809 0 0 0
17178 2 4.676282085775548 0.8999587694576683 4.663265246901497 0 0 0
6683 1 6.235027023118669 1.7999262350133398 3.1043518482365906 0 0 0
17177 2 7.793814154602445 0.8999552990106052 4.663233241518682 0 0 0
6684 1 9.352571266280147 1.799926256803429 3.1043218022680854 0 0 0
6685 1 12.470090548319467 1.7999230607708614 3.1042963147260516 0 0 0
17084 2 10.911342892862423 0.8999502013201154 4.663209183817076 0 0 0
6687 1 15.587633248454067 1.7999127065414218 3.1042798088463783 0 0 0
17083 2 14.028869167797385 0.8999551090208278 4.663188922622974 0 0 0
17082 2 17.146405816036687 0.8999535961837134 4.663181898921632 0 0 0
6669 1 18.705172451006874 1.7999077320982397 3.1042721738375945 0 0 0
17063 2 20.263935934841022 0.8999530384873166 4.663184366473729 0 0 0
6653 1 21.82271123571564 1.7999041289488231 3.104282553165551 0 0 0
16988 2 23.38146643607053 0.8999546582088251 4.663206430268998 0 0 0
6655 1 24.94025205245636 1.7998994353257391 3.1043100783613937 0 0 0
16987 2 26.49899706543383 0.8999513481935628 4.663244889703016 0 0 0
6656 1 28.05779267329541 1.7998930162880076 3.1043588231937322 0 0 0
6657 1 1.5587301016935 4.4998016115578805 3.1044377397904537 0 0 0
17051 2 17.146400970016156 27.89859140144289 4.66339156810991 0 0 0
6658 1 4.676267358869512 4.499780370846577 3.104399793641826 0 0 0
16986 2 3.117517864444196 3.599815265095339 4.663309881688318 0 0 0
6660 1 7.793799334230854 4.49978660910158 3.104376956840094 0 0 0
16985 2 6.235047076414037 3.599811749410947 4.663283717376716 0 0 0
16984 2 9.352584394691899 3.599808421797349 4.663251812706628 0 0 0
6662 1 10.911330078282687 4.499876963198749 3.104368815154425 0 0 0
16983 2 12.470102970285138 3.599807919562345 4.663223520265504 0 0 0
6664 1 14.028861459623439 4.499779901396921 3.104317160397566 0 0 0
16982 2 15.587642660713783 3.5998115872834395 4.663201525159458 0 0 0
6666 1 17.146396910704524 4.499776486381163 3.1042845372718215 0 0 0
6667 1 20.263937870955342 4.499772319369373 3.104277573072509 0 0 0
16981 2 18.70517076672722 3.5998148036237656 4.663184450869914 0 0 0
6689 1 23.381478417988117 4.499768879123137 3.10428885432935 0 0 0
16980 2 21.82270198448959 3.599815609539229 4.663188709926288 0 0 0
6691 1 26.499017955208746 4.4997635609109725 3.1043204850920025 0 0 0
16979 2 24.940231377157 3.5998152726502792 4.663211196478751 0 0 0
16978 2 28.057754205589962 3.5998103202092175 4.66326001614596 0 0 0
17062 2 26.498994042122003 27.89857779846335 4.663470515594392 0 0 0
16977 2 1.5587536068706849 6.2996817567878525 4.663363741183692 0 0 0
6716 1 3.117513007016415 7.199654885735042 3.1044589756121246 0 0 0
16976 2 4.676294370461867 6.299672561424477 4.6633307379114575 0 0 0
6718 1 6.235044680570335 7.1996563016054145 3.104418482624363 0 0 0
16975 2 7.793815925184311 6.299681879582113 4.663300394188837 0 0 0
6720 1 9.352644056742559 7.19960864640734 3.1044177259106602 0 0 0
6728 1 12.470009517413102 7.199602387286205 3.104382559918873 0 0 0
6722 1 15.587616116036425 7.19964578404783 3.1043160158494323 0 0 0
16989 2 14.028872916580138 6.299681710325744 4.66323487013036 0 0 0
16990 2 17.146401760015294 6.299678110073652 4.66320328816372 0 0 0
6725 1 18.705162200216314 7.199639665070798 3.104290848313469 0 0 0
16991 2 20.263934955610306 6.299677271632746 4.663191695264189 0 0 0
6727 1 21.82270541653794 7.1996375239117105 3.104287983307586 0 0 0
16992 2 23.381467979671793 6.299676808061001 4.663198399679721 0 0 0
6719 1 24.94024636696828 7.199632565447611 3.1043021133453825 0 0 0
17008 2 26.498999188569023 6.299676454911699 4.663224522303937 0 0 0
6710 1 28.05779064169248 7.199629743255128 3.104338865314483 0 0 0
6699 1 1.5586649113533415 9.899471367142265 3.1045364987918727 0 0 0
6692 1 4.676273746353034 9.899527226463825 3.104477171474931 0 0 0
17007 2 3.117529718253456 8.99954775964459 4.663384564896928 0 0 0
6694 1 7.793798896861052 9.899518531388917 3.104445437273971 0 0 0
17006 2 6.235051395732392 8.999539644742521 4.663353344561963 0 0 0
17005 2 9.352568866109623 8.99953726976498 4.663323780679668 0 0 0
6697 1 10.911315457021072 9.899521472041869 3.104419199512216 0 0 0
17004 2 12.47011091795666 8.999535209339907 4.663283322811598 0 0 0
6700 1 14.02885400791319 9.899498276879404 3.104363617587006 0 0 0
17003 2 15.587643947611136 8.999536788334845 4.663241665926438 0 0 0
6701 1 17.146394093472875 9.899505495212315 3.10432331714441 0 0 0
6702 1 20.263934777381333 9.899504512667253 3.1043074472362964 0 0 0
17002 2 18.705172078860432 8.99953805790949 4.66321311639766 0 0 0
6703 1 23.381474359314865 9.899505948407441 3.104308772543585 0 0 0
17009 2 21.822703806829868 8.999538044770391 4.663206984190608 0 0 0
6705 1 26.499009353608255 9.899497698080621 3.1043261890451355 0 0 0
17001 2 24.940232155321105 8.999536170154501 4.663217328607192 0 0 0
16999 2 28.05775928204182 8.999535043872648 4.663246279338929 0 0 0
16998 2 1.5587605418816586 11.699399900219767 4.663445376781993 0 0 0
6887 1 3.117507372746499 12.599371196189942 3.104540375741851 0 0 0
16997 2 4.676289330619541 11.699397624474605 4.663416562255814 0 0 0
6810 1 6.235035873321525 12.599470753549038 3.104541004662719 0 0 0
16996 2 7.793813121680387 11.699385766975423 4.663382107001039 0 0 0
6909 1 9.35255768827027 12.599472977762712 3.1045096340452503 0 0 0
6911 1 12.47008741141469 12.59936994498182 3.1044284543668326 0 0 0
16995 2 10.911343050521067 11.699400269890873 4.663350763795668 0 0 0
6913 1 15.587620805380793 12.599368483641902 3.104367897689145 0 0 0
16994 2 14.02888142290681 11.699393487147827 4.66329311785398 0 0 0
16993 2 17.146407368692735 11.699400323067005 4.663249582492869 0 0 0
6917 1 18.705163389794976 12.599371303892053 3.1043389319255623 0 0 0
16974 2 20.263937133872147 11.699399803416268 4.663232476422353 0 0 0
6925 1 21.822704595839443 12.599372868543753 3.1043346943815497 0 0 0
17000 2 23.38147118023531 11.699400717435795 4.663234982504475 0 0 0
6919 1 24.94024688960439 12.599377476140965 3.1043466937798074 0 0 0
16973 2 26.49899650367665 11.69939327299044 4.663250288238423 0 0 0
6920 1 28.057762523196278 12.599369998285104 3.1043596333733503 0 0 0
6921 1 1.5587521936425246 15.299245114611377 3.104569206867937 0 0 0
20495 3 8.644385625265355e-07 19.798975695402344 1.545589657614631 1 0 0
6922 1 4.676367958993631 15.299190800021577 3.104579058670693 0 0 0
16963 2 3.1175238450791505 14.399275191708856 4.663456717909321 0 0 0
6924 1 7.7937747432242155 15.299168336378388 3.104522459883721 0 0 0
6907 1 10.911231120532523 15.299185492869055 3.104504014014901 0 0 0
16953 2 12.470112182059383 14.399273237941916 4.663344262586427 0 0 0
6905 1 14.028843922333204 15.299234038682174 3.1044133903689035 0 0 0
16952 2 15.587638077134729 14.399267345833689 4.663289640071514 0 0 0
6891 1 17.146392778394045 15.299235042411798 3.1043746213689363 0 0 0
6892 1 20.26393730097472 15.299238127870078 3.104364243217188 0 0 0
16951 2 18.705170248169704 14.399266847185718 4.6632646464224345 0 0 0
6893 1 23.381473190328887 15.299238417260423 3.1043858736673684 0 0 0
16950 2 21.82269744204182 14.39926148706577 4.663268310664855 0 0 0
6895 1 26.499003791455145 15.299330903130576 3.1044209714479343 0 0 0
16949 2 24.940237060343925 14.399257089073188 4.663279242065452 0 0 0
16948 2 28.0577578408773 14.399252994524346 4.663288824692147 0 0 0
16947 2 1.5587424049272138 17.09913651367607 4.663479588610994 0 0 0
17053 2 23.381469379202642 27.89858327939509 4.663465715869755 0 0 0
6900 1 3.117507446431981 17.999082550336897 3.1045862154745976 0 0 0
16946 2 4.676283203999714 17.09912136471656 4.663469393883223 0 0 0
6902 1 6.235031093636741 17.999180044063344 3.1045837642537704 0 0 0
16945 2 7.793811337542803 17.09910666310161 4.663419062248669 0 0 0
6903 1 9.352555770805914 17.999081236473117 3.1045128403948317 0 0 0
6916 1 12.470087012386907 17.99908004471149 3.104450347305693 0 0 0
16944 2 10.911355144082926 17.09913033504488 4.663386640645638 0 0 0
6926 1 15.587629278165577 17.999095649055874 3.1044092805639765 0 0 0
16943 2 14.028881091761422 17.09913120167354 4.663330277091351 0 0 0
16942 2 17.146408180659137 17.099130010674227 4.663297953259941 0 0 0
6949 1 18.70517343900692 17.99910042879857 3.1043957508675715 0 0 0
16941 2 20.263940344959163 17.09912859878876 4.663294677147026 0 0 0
6951 1 21.82271914482818 17.999107596146505 3.1044084257371938 0 0 0
16954 2 23.381465475508406 17.099128630919605 4.663314431743244 0 0 0
6953 1 24.940320593628794 17.99905979706905 3.104462508752242 0 0 0
6954 1 28.0576890476221 17.99906522051132 3.104469945676029 0 0 0
6955 1 1.5586877534869288 20.69890425571016 3.104615899658749 0 0 0
6957 1 4.676331733438833 20.69890954918668 3.104591943691702 0 0 0
16955 2 3.117521801437159 19.79899714505475 4.663486147038613 0 0 0
6958 1 7.79371049892983 20.69889818304432 3.1045550053435527 0 0 0
16971 2 9.352578425562433 19.798996753919 4.663412095126633 0 0 0
6961 1 10.911314831987816 20.69895088331458 3.1044792014421385 0 0 0
16970 2 12.470107475650762 19.79898931517112 4.66335979539581 0 0 0
6963 1 14.028858015924875 20.698951300730158 3.104439082661572 0 0 0
16969 2 15.58763876735044 19.798992332966698 4.663329823740647 0 0 0
6948 1 17.14640243262897 20.698964608417572 3.104427209748168 0 0 0
6956 1 20.26394541912602 20.698966648568526 3.1044393291518118 0 0 0
16968 2 18.705168567804847 19.7989904547923 4.663326050893037 0 0 0
6947 1 23.38148611795227 20.698966661385057 3.1044703359487915 0 0 0
16967 2 21.82270109749776 19.798989545479806 4.663347022107821 0 0 0
6929 1 26.49899423681292 20.69897536922417 3.104507619492861 0 0 0
16966 2 24.94022249627291 19.79898067730069 4.66337907834411 0 0 0
16965 2 28.05777088980386 19.79898074620501 4.663381095141722 0 0 0
16972 2 1.5587584377923922 22.498847427526478 4.663492824176564 0 0 0
6934 1 3.1175086311776115 23.398873273735063 3.104601825015095 0 0 0
16964 2 4.676275589720973 22.498847901071507 4.663471849352536 0 0 0
6937 1 6.23503200206011 23.39880508055793 3.104558810297811 0 0 0
16962 2 7.793822735090427 22.49884663155387 4.663436219158924 0 0 0
6945 1 9.352558088881644 23.398797771925505 3.1045021055486828 0 0 0
6939 1 12.470104216527734 23.398816046232618 3.104469520560605 0 0 0
16961 2 10.91134991785195 22.498855280479752 4.6633906301673065 0 0 0
6941 1 15.587630308368224 23.398823173009657 3.104460259334452 0 0 0
16960 2 14.028873550261887 22.49884620688518 4.663362680276353 0 0 0
16959 2 17.14640393678703 22.498856960297147 4.6633573616223 0 0 0
6944 1 18.70518702369106 23.39883066272008 3.104472359650115 0 0 0
16958 2 20.263932031748922 22.498847392662906 4.663382272432057 0 0 0
6889 1 21.82271039782688 23.39883208499077 3.1045094689118 0 0 0
16957 2 23.381473019562062 22.498847179525356 4.663407852760151 0 0 0
6888 1 24.94025212382904 23.398925288723703 3.104558725798719 0 0 0
16956 2 26.49899615409701 22.498856484363895 4.663435527371478 0 0 0
6867 1 28.05785765747565 23.398780192192277 3.1045824048432467 0 0 0
6830 1 1.5588390037589135 26.098618991083868 3.1046166918709712 0 0 0
6831 1 4.6761841877329715 26.098617170734197 3.104578054449281 0 0 0
6833 1 7.793786391291395 26.09866832393696 3.104511324168676 0 0 0
17010 2 6.235048305878658 25.19872803572666 4.6634466189411485 0 0 0
17011 2 9.35257026636434 25.198714196894088 4.663406984583635 0 0 0
6836 1 10.91132800313614 26.09866385260804 3.104488502881914 0 0 0
17012 2 12.470110528798115 25.19871219055305 4.663383264608705 0 0 0
6846 1 14.028871929855395 26.09876483413585 3.1045053691043774 0 0 0
17061 2 15.587630104211282 25.198708907091802 4.6633851761357095 0 0 0
6840 1 17.14641401375601 26.09867094825535 3.1045016498362523 0 0 0
6841 1 20.26396280403345 26.098778666718733 3.1045464288709264 0 0 0
17060 2 18.705182933007237 25.198713370726118 4.663403253901772 0 0 0
6842 1 23.381581193942367 26.09863327403671 3.1045947369040787 0 0 0
17059 2 21.82270170808661 25.19871846133388 4.663435137471109 0 0 0
6844 1 26.498888750682493 26.098617340328563 3.1046094689680785 0 0 0
17058 2 28.05775310720654 25.19871929066156 4.6634648617419945 0 0 0
17057 2 1.5587482806381157 27.898588353905527 4.663473983488782 0 0 0
17056 2 4.676286020135766 27.89857704751816 4.663447807478474 0 0 0
17055 2 7.7938156480017975 27.898584771798937 4.6634065247745395 0 0 0
6634 1 28.057829264607097 28.79845789770758 3.104579512664794 0 0 0
17052 2 10.911342028406098 27.898584323839465 4.663381846536499 0 0 0
6641 1 12.470185255215835 28.79847491528603 3.1044937375674353 0 0 0
7328 1 7.46029288178931e-05 1.7998761575483633 3.1044418679133687 1 0 0
6639 1 18.705247487162776 28.79848195656594 3.1045187154305776 0 0 0
20556 3 1.3357825240666786e-05 25.198734194233655 1.5457100823413312 1 0 0
6636 1 6.235021671053712 28.798520276686194 3.1045141392821582 0 0 0
6649 1 15.587573671370878 28.798481679260835 3.1044978526087568 0 0 0
6637 1 21.82262232888686 28.798457337938284 3.1045803964954732 0 0 0
6638 1 9.352573299087714 28.798526639558425 3.1044781736007283 0 0 0
6612 1 28.05777255925525 55.79715236668366 3.1043437341778812 0 0 0
20441 3 3.1174995818879094 30.598451606554875 1.5456589991475915 0 0 0
20440 3 6.234982713824364 30.59843970015934 1.5456152041893252 0 0 0
20457 3 9.35254630789043 30.598419892284912 1.545556870683243 0 0 0
20459 3 12.470110365314977 30.598384194103893 1.5455624404570742 0 0 0
20478 3 15.587638782259736 30.59838230898117 1.54556287945453 0 0 0
20460 3 18.705206299693295 30.59838200229798 1.5455836330162553 0 0 0
20477 3 21.822747996261562 30.59836565532978 1.5456490499605409 0 0 0
20476 3 24.940241146964844 30.598400420868966 1.5455182203951277 0 0 0
20475 3 28.057719093686458 30.59836763476608 1.5456479680150388 0 0 0
20474 3 1.5587290823107325 33.2983159929514 1.5456937414203704 0 0 0
20159 3 4.676229690729647 33.29828161132134 1.5455010631514026 0 0 0
20158 3 7.793736949514559 33.298281212488206 1.5455723121875409 0 0 0
20157 3 10.911314733085819 33.29826725091326 1.5455202666977645 0 0 0
20164 3 14.028868740826365 33.298264255863856 1.5455087723106167 0 0 0
20156 3 17.14641383385544 33.298250994095135 1.545513851788373 0 0 0
20154 3 20.26396440306786 33.29824835999593 1.545540370873316 0 0 0
20153 3 23.38151906872845 33.298209880985155 1.5456108076111514 0 0 0
20152 3 26.4989837063453 33.29821987327274 1.5454844486411194 0 0 0
6611 1 24.940233949986496 55.79715015127856 3.10433734835729 0 0 0
20151 3 3.1174417111435617 35.998103154438866 1.5456494878897042 0 0 0
20150 3 6.234977308905486 35.9981026943587 1.5455718814661605 0 0 0
20149 3 9.352539437616452 35.99813216806511 1.5455051579751389 0 0 0
20148 3 12.470093989439874 35.998135188839676 1.5454837107390087 0 0 0
20155 3 15.587643348061606 35.9981383454688 1.5454800630127197 0 0 0
20165 3 18.705177737914763 35.998128258065286 1.5454883247768494 0 0 0
20166 3 21.822710446043924 35.99811166051497 1.5455131560985556 0 0 0
20167 3 24.940239216892337 35.99806690271846 1.5455530141319014 0 0 0
20184 3 28.05773348432222 35.99807162801697 1.5455479356889692 0 0 0
20183 3 1.5586890853314397 38.697946703823256 1.5456069303714517 0 0 0
20182 3 4.676231658408491 38.69798426711661 1.545542084086512 0 0 0
20181 3 7.79376983062599 38.69799067939466 1.545497264365432 0 0 0
20180 3 10.911321741464217 38.69800154497341 1.545468509970844 0 0 0
20179 3 14.028871560925563 38.698007208055664 1.545462511597362 0 0 0
20178 3 17.146426457307292 38.69802857011025 1.545486800761389 0 0 0
20177 3 20.26391791821717 38.69801644839883 1.5454980332509816 0 0 0
20176 3 23.381461716218677 38.69797602111032 1.5454892771469249 0 0 0
20175 3 26.498986379971686 38.69797268395567 1.5454891541443296 0 0 0
20174 3 3.1174648178442768 41.39785622148409 1.5455360878223994 0 0 0
20173 3 6.235007794808365 41.3978678060023 1.5454965420632085 0 0 0
20172 3 9.352550957860018 41.39787203936651 1.5454644973230074 0 0 0
20171 3 12.470104540436166 41.397873904003944 1.5454522255868326 0 0 0
20170 3 15.587667349008232 41.39787853963056 1.5454755907224715 0 0 0
20169 3 18.70516790662421 41.39786655511547 1.5453576409090575 0 0 0
20168 3 21.822661914132517 41.39786038542445 1.5454816002623262 0 0 0
20207 3 24.94021592917201 41.39785386774226 1.5454575527045504 0 0 0
20228 3 28.057757532557233 41.39785822220042 1.5454530604026735 0 0 0
20229 3 1.5587021363558233 44.09774761394348 1.5455562213276728 0 0 0
20230 3 4.676236874446388 44.097749038929265 1.545515592004026 0 0 0
20289 3 7.793780326731359 44.09775615152843 1.5454811743048713 0 0 0
20288 3 10.911318570873576 44.097748933625766 1.54545621792451 0 0 0
20287 3 14.02885877627398 44.09774542922948 1.54544854679478 0 0 0
20286 3 17.146409135118173 44.09770105468098 1.5454706410233503 0 0 0
20285 3 20.26392361761237 44.0977034695813 1.5454694350911469 0 0 0
20284 3 23.38145668077624 44.09772879245271 1.5454395442633728 0 0 0
20283 3 26.49898879724974 44.09773675794814 1.5454372904434062 0 0 0
6610 1 21.82269426303679 55.79715469666513 3.104334652480162 0 0 0
20282 3 3.117462007621844 46.797636763308866 1.5455614399062882 0 0 0
20281 3 6.235000898623897 46.79763361787655 1.545521633716893 0 0 0
20280 3 9.352561618240607 46.79764341007812 1.545506762480505 0 0 0
20279 3 12.470060009201672 46.797634779768394 1.5454801606644366 0 0 0
20278 3 15.58762388178186 46.79759409119326 1.545445915068148 0 0 0
20277 3 18.705169002746153 46.79759219249918 1.5454417282414425 0 0 0
20276 3 21.822714654675288 46.79761367610526 1.5454602269845898 0 0 0
20275 3 24.940206561675545 46.797624726045704 1.5454549681261482 0 0 0
20274 3 28.057760085482077 46.79760714886379 1.5454314821911634 0 0 0
20273 3 1.5587002439334774 49.49754896442586 1.5456730549416575 0 0 0
20290 3 4.676203022378184 49.497515195863905 1.5455951747228687 0 0 0
20292 3 7.7937876068869585 49.49748791702377 1.5455419791153457 0 0 0
20311 3 10.911303041293621 49.497467986963 1.5453792999482796 0 0 0
20293 3 14.028819240096333 49.4974668822815 1.5454683625063166 0 0 0
20310 3 17.146393529536386 49.49745987044143 1.545432283402281 0 0 0
20309 3 20.263963501048256 49.49746277587424 1.5454526881418598 0 0 0
20308 3 23.381462339649904 49.49745955986937 1.5453317698176108 0 0 0
20307 3 26.498960978398713 49.497472658602746 1.5454511084395675 0 0 0
20306 3 3.1174561826616665 52.19733934330056 1.545531246011495 0 0 0
20305 3 6.234959772739298 52.19733985935425 1.5455690046182047 0 0 0
20304 3 9.352534491480293 52.19729353106313 1.5455183781344446 0 0 0
20303 3 12.470061512072572 52.19729112809742 1.5454764448135758 0 0 0
20302 3 15.587621324226532 52.19732217996301 1.545427807960702 0 0 0
20301 3 18.705168643999997 52.197321829997676 1.545420578368651 0 0 0
20300 3 21.822713041011625 52.19729413636442 1.5454467789460418 0 0 0
20299 3 24.940220986909512 52.19729783412523 1.5454486373110292 0 0 0
20298 3 28.057771246940025 52.197337211685536 1.54542711233365 0 0 0
20297 3 1.5587537536450018 54.89711542309407 1.5456287940154623 0 0 0
20296 3 4.6762333521238 54.89714021417471 1.545457528052537 0 0 0
20295 3 7.79373821006612 54.89717051960085 1.5455232134954735 0 0 0
20294 3 10.911300514279882 54.89717120289136 1.5454620850441914 0 0 0
20272 3 14.028850608786788 54.89717734388505 1.545431483674674 0 0 0
20291 3 17.146403782668628 54.897198766846444 1.5454193447789648 0 0 0
20271 3 20.263940555209032 54.89718898518538 1.5454212924534287 0 0 0
20249 3 23.38146533486531 54.89719596253438 1.5454279342488688 0 0 0
20247 3 26.499004370140828 54.89719551177845 1.5454292016501232 0 0 0
6583 1 26.498997478932317 53.09727776428562 3.1043346967503234 0 0 0
17258 2 26.499000083687314 54.89718925124797 4.663242593981892 0 0 0
20243 3 12.470096027118371 57.59704548920087 1.545431063400154 0 0 0
6587 1 12.47009179322784 55.79713889116193 3.104345554078884 0 0 0
16397 2 24.940238150000432 57.597051958015044 4.663254328790799 0 0 0
6635 1 24.9402371469138 28.798644026981687 3.104606542528638 0 0 0
17452 2 3.1175227286518132 30.598445273933212 4.66345992586756 0 0 0
6633 1 3.1175033279324986 28.79854128778674 3.1045625909152 0 0 0
17451 2 6.235044910819463 30.59843244793887 4.663410941542997 0 0 0
6586 1 9.352548181355154 55.797138944932435 3.1043809070729753 0 0 0
17465 2 9.35258091389506 30.598440329527715 4.663376479606662 0 0 0
17466 2 12.470102681546669 30.598439887904764 4.6633564502776785 0 0 0
17467 2 15.58764105150505 30.59844143072418 4.663361663520611 0 0 0
20244 3 9.352543890077422 57.597033027078865 1.5454568581849781 0 0 0
17468 2 18.705161822839035 30.598442057384595 4.6633812455806165 0 0 0
6585 1 6.234941476708295 55.79707655593156 3.1044571580112055 0 0 0
17481 2 21.82269599894824 30.59844064125375 4.663422581685438 0 0 0
17480 2 28.05773671008748 30.598441741952897 4.663411034239061 0 0 0
6584 1 3.1175793812945383 55.79707114256151 3.1044985291609866 0 0 0
6453 1 1.5587309925816148 31.498385854224637 3.1045702400736355 0 0 0
17479 2 1.5587467882627333 33.2982989194974 4.66346760736109 0 0 0
6475 1 4.676264037280757 31.498477785696604 3.1045509564496627 0 0 0
6477 1 7.793794431764797 31.498379271473105 3.104482780122841 0 0 0
17478 2 7.793811024992208 33.298305872487774 4.663368467023393 0 0 0
6479 1 10.91133456035798 31.498370697961434 3.1044458975998848 0 0 0
17477 2 10.911337528855011 33.29830082249181 4.663331883154237 0 0 0
6481 1 14.028873849331617 31.4983790772807 3.104445267271412 0 0 0
17482 2 14.028870583864276 33.29830756284734 4.663326605156677 0 0 0
6483 1 17.1464109697475 31.498358958991705 3.1044485415255894 0 0 0
17476 2 17.14640051684054 33.298295848621166 4.663327513775954 0 0 0
6484 1 20.263954372216432 31.498376417016104 3.1044870522687287 0 0 0
17474 2 20.263928150022267 33.29830857207251 4.663359528478498 0 0 0
6486 1 23.38155557519354 31.49830514574973 3.104547332159454 0 0 0
17473 2 23.38145316538722 33.29829421993336 4.663384952350248 0 0 0
6487 1 26.498926595522533 31.49838286962584 3.1045188894327924 0 0 0
6488 1 3.117583576987938 34.19819372011938 3.1045757858008525 0 0 0
17472 2 3.11750514792158 35.9981725870834 4.663422660811728 0 0 0
6490 1 6.234942239838062 34.19819467212115 3.104506136499568 0 0 0
17471 2 6.235045759556372 35.99816291308674 4.663365847886941 0 0 0
6482 1 9.352550988917164 34.198240800648165 3.104431680618837 0 0 0
17470 2 9.352574681665615 35.998163098102815 4.663321048744741 0 0 0
6462 1 12.470098716635377 34.19823769930349 3.1044083868404866 0 0 0
17469 2 12.470104244361721 35.99816227394387 4.663297231418438 0 0 0
6455 1 15.58764060404081 34.19823742101137 3.104405283696644 0 0 0
17381 2 15.587640042120675 35.99816356188864 4.663293424880269 0 0 0
6457 1 18.705175318611552 34.198232019775325 3.104417351662183 0 0 0
17448 2 18.705161017046535 35.99815778405328 4.663306104473271 0 0 0
6459 1 21.82271669162008 34.19822187380233 3.1044498118914867 0 0 0
17380 2 21.822687383490848 35.998156921136705 4.6633287099292025 0 0 0