LAMMPS data file via write_data, version 2 Aug 2023, timestep = 2091, units = metal

28560 atoms
3 atom types

0 935.262072177783 xlo xhi
0 86.39582673402086 ylo yhi
0 50 zlo zhi
0 0 0 xy xz yz

Masses

1 95.94
2 32.065
3 32.065

Atoms # atomic

1 3 1.558769292574474 0.899956517646152 1.5454397850564088 0 0 0
2 3 4.67630953316773 0.8999565176464068 1.545439785056283 0 0 0
3 3 7.793849773761318 0.8999565176461473 1.5454397850570611 0 0 0
4 3 10.911390014353568 0.8999565176465927 1.5454397850567896 0 0 0
5 3 14.028930254945807 0.8999565176465447 1.545439785056685 0 0 0
6 3 17.14647049553791 0.8999565176464152 1.545439785056992 0 0 0
7 3 20.264010736130405 0.8999565176464359 1.5454397850570074 0 0 0
8 3 23.38155097672342 0.899956517646459 1.5454397850569994 0 0 0
9 3 26.49909121731618 0.8999565176464375 1.5454397850569075 0 0 0
10 3 29.616631457908266 0.8999565176465006 1.5454397850569312 0 0 0
11 3 32.73417169850064 0.8999565176463871 1.5454397850569688 0 0 0
12 3 35.85171193909308 0.8999565176463781 1.545439785056856 0 0 0
13 3 38.96925217968555 0.899956517646498 1.5454397850569728 0 0 0
14 3 3.117539412872274 3.5998261030848093 1.5454397850560944 0 0 0
15 3 6.235079653465136 3.5998261030841605 1.5454397850572192 0 0 0
16 3 9.352619894058098 3.599826103084313 1.5454397850570716 0 0 0
17 3 12.470160134649635 3.5998261030846903 1.5454397850567914 0 0 0
18 3 15.58770037524178 3.599826103084504 1.5454397850569284 0 0 0
19 3 18.705240615834043 3.599826103084562 1.545439785056983 0 0 0
20 3 21.822780856426878 3.5998261030846526 1.5454397850569375 0 0 0
21 3 24.94032109701999 3.5998261030845176 1.545439785056963 0 0 0
22 3 28.057861337612216 3.599826103084555 1.545439785056925 0 0 0
23 3 31.175401578204436 3.5998261030844745 1.5454397850568793 0 0 0
24 3 34.29294181879675 3.599826103084455 1.5454397850568835 0 0 0
25 3 37.41048205938917 3.599826103084591 1.5454397850570258 0 0 0
26 3 1.5587692925773136 6.299695688522808 1.5454397850562884 0 0 0
27 3 4.676309533168237 6.299695688522817 1.5454397850571004 0 0 0
28 3 7.793849773761253 6.29969568852229 1.5454397850570119 0 0 0
29 3 10.911390014353683 6.299695688522692 1.5454397850569077 0 0 0
30 3 14.02893025494574 6.299695688522808 1.545439785056823 0 0 0
31 3 17.146470495537685 6.299695688522632 1.545439785056946 0 0 0
32 3 20.264010736130324 6.299695688522711 1.5454397850569648 0 0 0
33 3 23.381550976723542 6.29969568852274 1.545439785056946 0 0 0
34 3 26.49909121731622 6.299695688522747 1.54543978505693 0 0 0
35 3 29.616631457908277 6.299695688522738 1.5454397850569075 0 0 0
36 3 32.734171698500504 6.299695688522736 1.5454397850569876 0 0 0
37 3 35.85171193909292 6.299695688522762 1.5454397850569157 0 0 0
38 3 38.96925217968549 6.299695688522635 1.545439785056943 0 0 0
39 3 3.1175394128716465 8.999565273960952 1.5454397850563932 0 0 0
40 3 6.235079653464619 8.999565273961444 1.5454397850574184 0 0 0
41 3 9.352619894058263 8.999565273960796 1.5454397850569876 0 0 0
42 3 12.470160134649973 8.999565273961025 1.5454397850568249 0 0 0
43 3 15.587700375241598 8.999565273960895 1.5454397850568544 0 0 0
44 3 18.70524061583382 8.999565273960709 1.5454397850569692 0 0 0
45 3 21.822780856426945 8.999565273960895 1.5454397850569175 0 0 0
46 3 24.94032109701996 8.99956527396095 1.5454397850569543 0 0 0
47 3 28.05786133761222 8.999565273960858 1.5454397850568615 0 0 0
48 3 31.175401578204397 8.999565273960902 1.5454397850569264 0 0 0
49 3 34.2929418187968 8.999565273960899 1.5454397850569261 0 0 0
50 3 37.41048205938924 8.999565273960949 1.54543978505688 0 0 0
51 3 1.5587692925760717 11.699434859399132 1.5454397850567467 0 0 0
52 3 4.676309533167796 11.699434859399767 1.5454397850568058 0 0 0
53 3 7.793849773761181 11.699434859399338 1.545439785057111 0 0 0
54 3 10.911390014353996 11.699434859398933 1.5454397850568609 0 0 0
55 3 14.028930254945934 11.699434859398925 1.5454397850567574 0 0 0
56 3 17.146470495537645 11.699434859398774 1.5454397850569543 0 0 0
57 3 20.264010736130395 11.699434859398933 1.5454397850569936 0 0 0
58 3 23.381550976723556 11.699434859398968 1.5454397850569959 0 0 0
59 3 26.49909121731618 11.699434859398897 1.5454397850568475 0 0 0
60 3 29.616631457908312 11.699434859398973 1.5454397850568804 0 0 0
61 3 32.73417169850049 11.699434859398973 1.5454397850569677 0 0 0
62 3 35.85171193909301 11.699434859398945 1.5454397850568677 0 0 0
63 3 38.96925217968549 11.69943485939898 1.545439785056986 0 0 0
64 3 3.117539412870819 14.399304444837323 1.5454397850568566 0 0 0
65 3 6.235079653464871 14.39930444483761 1.5454397850571178 0 0 0
66 3 9.352619894057966 14.39930444483711 1.5454397850571044 0 0 0
67 3 12.470160134649763 14.399304444837005 1.5454397850567563 0 0 0
68 3 15.587700375241562 14.399304444836918 1.5454397850568498 0 0 0
69 3 18.70524061583388 14.399304444837005 1.5454397850570119 0 0 0
70 3 21.822780856427023 14.399304444837172 1.5454397850569441 0 0 0
71 3 24.940321097020036 14.399304444837075 1.5454397850569157 0 0 0
72 3 28.057861337612234 14.399304444837087 1.5454397850569246 0 0 0
73 3 31.175401578204397 14.39930444483711 1.5454397850569306 0 0 0
74 3 34.29294181879672 14.39930444483717 1.5454397850568753 0 0 0
75 3 37.41048205938916 14.399304444837034 1.5454397850569697 0 0 0
76 3 1.5587692925766679 17.099174030275144 1.5454397850565609 0 0 0
77 3 4.6763095331683875 17.0991740302751 1.5454397850562314 0 0 0
78 3 7.7938497737609085 17.099174030275123 1.5454397850570505 0 0 0
79 3 10.911390014353522 17.099174030274998 1.5454397850569304 0 0 0
80 3 14.02893025494574 17.09917403027519 1.5454397850567352 0 0 0
81 3 17.146470495537724 17.099174030275233 1.5454397850569723 0 0 0
82 3 20.26401073613051 17.099174030275336 1.5454397850570112 0 0 0
83 3 23.38155097672357 17.099174030275254 1.5454397850569546 0 0 0
84 3 26.49909121731611 17.09917403027524 1.545439785056874 0 0 0
85 3 29.616631457908305 17.099174030275265 1.5454397850569248 0 0 0
86 3 32.73417169850049 17.099174030275254 1.545439785056933 0 0 0
87 3 35.85171193909307 17.099174030275268 1.5454397850568953 0 0 0
88 3 38.96925217968543 17.099174030275247 1.5454397850569712 0 0 0
89 3 3.117539412870759 19.79904361571374 1.54543978505665 0 0 0
90 3 6.23507965346493 19.799043615713313 1.5454397850572306 0 0 0
91 3 9.352619894058037 19.79904361571308 1.5454397850571062 0 0 0
92 3 12.470160134649808 19.799043615713344 1.5454397850567507 0 0 0
93 3 15.587700375241534 19.79904361571342 1.5454397850569128 0 0 0
94 3 18.70524061583397 19.799043615713497 1.5454397850570127 0 0 0
95 3 21.822780856427134 19.79904361571349 1.5454397850569797 0 0 0
96 3 24.940321097020043 19.79904361571342 1.5454397850569133 0 0 0
97 3 28.057861337612195 19.799043615713515 1.5454397850569161 0 0 0
98 3 31.175401578204404 19.79904361571338 1.54543978505697 0 0 0
99 3 34.2929418187968 19.799043615713412 1.545439785056885 0 0 0
100 3 37.41048205938924 19.79904361571353 1.5454397850570476 0 0 0
101 3 1.5587692925768317 22.49891320115101 1.5454397850562123 0 0 0
102 3 4.6763095331684745 22.49891320115146 1.5454397850567576 0 0 0
103 3 7.793849773761112 22.498913201151538 1.5454397850570936 0 0 0
104 3 10.911390014353795 22.49891320115151 1.5454397850568284 0 0 0
105 3 14.028930254945909 22.498913201151606 1.545439785056784 0 0 0
106 3 17.146470495537834 22.49891320115165 1.5454397850570134 0 0 0
107 3 20.264010736130484 22.498913201151794 1.545439785056939 0 0 0
108 3 23.38155097672357 22.498913201151645 1.5454397850569517 0 0 0
109 3 26.499091217316035 22.49891320115173 1.5454397850568935 0 0 0
110 3 29.616631457908277 22.498913201151538 1.5454397850569683 0 0 0
111 3 32.73417169850049 22.498913201151524 1.545439785056887 0 0 0
112 3 35.85171193909292 22.4989132011517 1.5454397850569892 0 0 0
113 3 38.96925217968559 22.49891320115165 1.5454397850568697 0 0 0
114 3 3.1175394128714573 25.198782786589696 1.5454397850563792 0 0 0
115 3 6.235079653465056 25.19878278659004 1.5454397850574588 0 0 0
116 3 9.352619894058074 25.19878278658981 1.5454397850569663 0 0 0
117 3 12.470160134649698 25.19878278658978 1.5454397850567654 0 0 0
118 3 15.587700375241651 25.198782786589796 1.5454397850568782 0 0 0
119 3 18.705240615834004 25.198782786589835 1.545439785056995 0 0 0
120 3 21.822780856427066 25.19878278658989 1.5454397850569643 0 0 0
121 3 24.94032109701995 25.198782786589767 1.5454397850569583 0 0 0
122 3 28.057861337612195 25.198782786589828 1.5454397850569064 0 0 0
123 3 31.175401578204546 25.198782786589767 1.545439785056962 0 0 0
124 3 34.292941818796855 25.1987827865897 1.5454397850568906 0 0 0
125 3 37.41048205938931 25.198782786589863 1.5454397850569286 0 0 0
126 3 1.5587692925769427 27.898652372027602 1.5454397850563808 0 0 0
127 3 4.67630953316889 27.89865237202789 1.5454397850565276 0 0 0
128 3 7.793849773761324 27.89865237202793 1.5454397850569948 0 0 0
129 3 10.911390014353408 27.898652372027847 1.5454397850568735 0 0 0
130 3 14.028930254945807 27.89865237202793 1.5454397850567496 0 0 0
131 3 17.14647049553785 27.898652372027886 1.545439785056993 0 0 0
132 3 20.26401073613048 27.89865237202793 1.5454397850569541 0 0 0
133 3 23.381550976723567 27.898652372027907 1.5454397850569301 0 0 0
134 3 26.499091217316124 27.89865237202786 1.5454397850568935 0 0 0
135 3 29.616631457908355 27.898652372027907 1.5454397850569235 0 0 0
136 3 32.73417169850057 27.89865237202781 1.545439785056912 0 0 0
137 3 35.851711939092986 27.898652372027847 1.5454397850569466 0 0 0
138 3 38.96925217968559 27.898652372027936 1.5454397850569246 0 0 0
139 2 1.5587692925747296 0.8999565176468683 4.663253548276884 0 0 0
140 2 4.6763095331676245 0.8999565176466107 4.6632535482765185 0 0 0
141 1 3.117539412870919 1.799913161397989 3.104346666666304 0 0 0
142 1 6.235079653464158 1.79991316139679 3.104346666666439 0 0 0
143 2 7.793849773760863 0.8999565176462427 4.663253548276413 0 0 0
144 1 9.352619894057476 1.799913161397482 3.1043466666669084 0 0 0
145 2 10.91139001435402 0.8999565176464192 4.663253548276556 0 0 0
146 1 12.470160134649696 1.799913161397761 3.104346666666502 0 0 0
147 2 14.028930254945609 0.8999565176465104 4.663253548276434 0 0 0
148 1 15.587700375241758 1.799913161397685 3.1043466666666624 0 0 0
149 2 17.146470495537873 0.8999565176464357 4.663253548276475 0 0 0
150 2 20.26401073613048 0.899956517646367 4.663253548276414 0 0 0
151 1 18.70524061583408 1.7999131613976362 3.104346666666737 0 0 0
152 1 21.82278085642688 1.799913161397567 3.1043466666666855 0 0 0
153 2 23.38155097672342 0.8999565176464931 4.663253548276413 0 0 0
154 1 24.940321097019876 1.7999131613975978 3.104346666666686 0 0 0
155 2 26.499091217316106 0.8999565176464436 4.663253548276457 0 0 0
156 1 28.05786133761214 1.7999131613977313 3.10434666666667 0 0 0
157 2 29.616631457908195 0.89995651764651 4.663253548276501 0 0 0
158 1 31.175401578204397 1.7999131613976724 3.104346666666705 0 0 0
159 2 32.73417169850059 0.89995651764637 4.663253548276428 0 0 0
160 2 35.85171193909301 0.8999565176463394 4.663253548276477 0 0 0
161 1 34.29294181879686 1.7999131613975532 3.1043466666666695 0 0 0
162 2 38.96925217968559 0.899956517646455 4.663253548276462 0 0 0
163 1 37.410482059389324 1.799913161397507 3.104346666666686 0 0 0
164 1 1.558769292576002 4.499782746835725 3.104346666666075 0 0 0
165 1 4.676309533168261 4.499782746835654 3.1043466666666815 0 0 0
166 2 3.1175394128718454 3.5998261030846352 4.663253548276293 0 0 0
167 1 7.793849773761699 4.49978274683533 3.10434666666678 0 0 0
168 2 6.23507965346489 3.5998261030839163 4.663253548276004 0 0 0
169 2 9.352619894058043 3.599826103084454 4.663253548276626 0 0 0
170 1 10.911390014353834 4.499782746835937 3.1043466666667454 0 0 0
171 2 12.470160134649735 3.599826103084484 4.66325354827634 0 0 0
172 1 14.028930254945646 4.499782746835913 3.1043466666665713 0 0 0
173 2 15.587700375241573 3.599826103084562 4.6632535482764075 0 0 0
174 1 17.146470495537745 4.499782746835752 3.104346666666726 0 0 0
175 1 20.264010736130327 4.499782746835734 3.1043466666666966 0 0 0
176 2 18.705240615833976 3.5998261030845757 4.663253548276432 0 0 0
177 1 23.3815509767235 4.499782746835651 3.1043466666666717 0 0 0
178 2 21.822780856426874 3.599826103084603 4.663253548276399 0 0 0
179 2 24.940321097019915 3.5998261030845686 4.663253548276382 0 0 0
180 1 26.499091217316202 4.499782746835836 3.1043466666666717 0 0 0
181 2 28.057861337612206 3.599826103084568 4.663253548276426 0 0 0
182 1 29.616631457908337 4.499782746835828 3.1043466666666673 0 0 0
183 2 31.17540157820445 3.599826103084603 4.663253548276406 0 0 0
184 1 32.73417169850059 4.499782746835739 3.1043466666666495 0 0 0
185 1 35.85171193909307 4.499782746835781 3.1043466666666983 0 0 0
186 2 34.29294181879686 3.5998261030844505 4.663253548276426 0 0 0
187 1 38.96925217968552 4.499782746835608 3.1043466666666792 0 0 0
188 2 37.41048205938916 3.5998261030844994 4.663253548276389 0 0 0
189 2 1.5587692925763257 6.299695688522411 4.663253548276231 0 0 0
190 2 4.676309533168486 6.299695688522612 4.663253548276821 0 0 0
191 1 3.117539412871904 7.19965233227487 3.1043466666668578 0 0 0
192 1 6.23507965346451 7.199652332273657 3.1043466666669124 0 0 0
193 2 7.793849773761314 6.299695688522423 4.663253548276475 0 0 0
194 1 9.352619894057543 7.199652332273791 3.1043466666667334 0 0 0
195 2 10.91139001435384 6.299695688522753 4.663253548276525 0 0 0
196 1 12.470160134649745 7.199652332274161 3.104346666666644 0 0 0
197 2 14.02893025494575 6.299695688522736 4.663253548276387 0 0 0
198 1 15.587700375241754 7.199652332274079 3.1043466666666357 0 0 0
199 2 17.14647049553761 6.2996956885227275 4.663253548276456 0 0 0
200 2 20.264010736130334 6.299695688522723 4.663253548276428 0 0 0
201 1 18.705240615833933 7.199652332273852 3.1043466666667126 0 0 0
202 1 21.822780856426892 7.199652332273887 3.104346666666697 0 0 0
203 2 23.381550976723503 6.2996956885227435 4.663253548276392 0 0 0
204 1 24.940321097019936 7.199652332273991 3.104346666666685 0 0 0
205 2 26.499091217316153 6.299695688522698 4.663253548276485 0 0 0
206 1 28.05786133761219 7.199652332274029 3.104346666666685 0 0 0
207 2 29.616631457908206 6.299695688522735 4.6632535482764235 0 0 0
208 1 31.175401578204287 7.199652332274061 3.1043466666667014 0 0 0
209 2 32.73417169850043 6.299695688522648 4.663253548276387 0 0 0
210 2 35.85171193909301 6.299695688522788 4.663253548276474 0 0 0
211 1 34.292941818796706 7.199652332273981 3.104346666666693 0 0 0
212 2 38.96925217968559 6.299695688522618 4.6632535482764474 0 0 0
213 1 37.41048205938925 7.1996523322739 3.104346666666718 0 0 0
214 1 1.5587692925756755 9.899521917711425 3.1043466666659905 0 0 0
215 1 4.676309533167332 9.899521917712686 3.104346666666648 0 0 0
216 2 3.1175394128705856 8.999565273961895 4.663253548276705 0 0 0
217 1 7.793849773761642 9.899521917712216 3.104346666666823 0 0 0
218 2 6.235079653464295 8.999565273961341 4.6632535482762005 0 0 0
219 2 9.352619894058169 8.999565273960773 4.663253548276458 0 0 0
220 1 10.91139001435416 9.899521917712223 3.104346666666719 0 0 0
221 2 12.470160134650046 8.999565273961066 4.663253548276463 0 0 0
222 1 14.028930254945806 9.899521917712296 3.104346666666583 0 0 0
223 2 15.587700375241488 8.99956527396084 4.66325354827645 0 0 0
224 1 17.14647049553756 9.899521917711963 3.104346666666737 0 0 0
225 1 20.26401073613037 9.899521917711915 3.104346666666702 0 0 0
226 2 18.705240615833812 8.999565273960764 4.663253548276496 0 0 0
227 1 23.381550976723496 9.89952191771202 3.104346666666713 0 0 0
228 2 21.822780856426945 8.999565273960904 4.66325354827646 0 0 0
229 2 24.940321097019993 8.999565273960954 4.663253548276446 0 0 0
230 1 26.499091217316174 9.899521917712148 3.104346666666697 0 0 0
231 2 28.05786133761224 8.999565273960885 4.6632535482765025 0 0 0
232 1 29.616631457908277 9.89952191771213 3.10434666666665 0 0 0
233 2 31.175401578204397 8.999565273960963 4.6632535482764155 0 0 0
234 1 32.73417169850064 9.899521917712145 3.10434666666673 0 0 0
235 1 35.85171193909307 9.8995219177121 3.104346666666661 0 0 0
236 2 34.29294181879687 8.999565273960888 4.663253548276483 0 0 0
237 1 38.969252179685455 9.899521917712079 3.104346666666683 0 0 0
238 2 37.41048205938938 8.999565273960888 4.663253548276482 0 0 0
239 2 1.5587692925754708 11.699434859397948 4.663253548276495 0 0 0
240 2 4.6763095331681015 11.699434859399528 4.663253548276761 0 0 0
241 1 3.117539412871206 12.59939150315054 3.104346666666835 0 0 0
242 1 6.235079653464285 12.599391503150448 3.1043466666668196 0 0 0
243 2 7.793849773761173 11.69943485939929 4.6632535482764785 0 0 0
244 1 9.352619894057847 12.59939150315015 3.104346666666834 0 0 0
245 2 10.911390014354284 11.699434859398954 4.663253548276478 0 0 0
246 1 12.470160134650007 12.599391503150242 3.1043466666665362 0 0 0
247 2 14.028930254945845 11.699434859398897 4.663253548276445 0 0 0
248 1 15.587700375241637 12.599391503150198 3.1043466666666806 0 0 0
249 2 17.146470495537564 11.699434859398815 4.6632535482765025 0 0 0
250 2 20.264010736130437 11.699434859398925 4.66325354827642 0 0 0
251 1 18.70524061583388 12.599391503150054 3.1043466666667445 0 0 0
252 1 21.82278085642691 12.599391503150162 3.10434666666667 0 0 0
253 2 23.38155097672361 11.699434859399014 4.663253548276375 0 0 0
254 1 24.940321097019858 12.59939150315013 3.10434666666667 0 0 0
255 2 26.499091217316202 11.699434859398933 4.66325354827647 0 0 0
256 1 28.05786133761219 12.599391503150178 3.1043466666666775 0 0 0
257 2 29.616631457908376 11.699434859398911 4.663253548276474 0 0 0
258 1 31.175401578204315 12.599391503150253 3.1043466666666886 0 0 0
259 2 32.73417169850049 11.699434859399021 4.663253548276414 0 0 0
260 2 35.85171193909294 11.699434859398933 4.6632535482764785 0 0 0
261 1 34.29294181879672 12.599391503150224 3.104346666666714 0 0 0
262 2 38.96925217968541 11.699434859399043 4.663253548276381 0 0 0
263 1 37.41048205938918 12.59939150315017 3.104346666666682 0 0 0
264 1 1.5587692925748182 15.299261088587777 3.104346666667178 0 0 0
265 1 4.676309533167626 15.299261088588477 3.104346666666547 0 0 0
266 2 3.1175394128709404 14.399304444837218 4.663253548276656 0 0 0
267 1 7.793849773761465 15.299261088588326 3.104346666666825 0 0 0
268 2 6.235079653464613 14.3993044448378 4.663253548276307 0 0 0
269 2 9.35261989405791 14.399304444837124 4.663253548276545 0 0 0
270 1 10.911390014353948 15.299261088588223 3.1043466666667507 0 0 0
271 2 12.47016013464989 14.399304444836945 4.663253548276397 0 0 0
272 1 14.028930254945642 15.2992610885884 3.104346666666538 0 0 0
273 2 15.587700375241381 14.399304444837005 4.663253548276443 0 0 0
274 1 17.14647049553765 15.299261088588256 3.1043466666667174 0 0 0
275 1 20.264010736130437 15.299261088588263 3.104346666666681 0 0 0
276 2 18.705240615833976 14.399304444837082 4.663253548276433 0 0 0
277 1 23.38155097672357 15.299261088588292 3.104346666666691 0 0 0
278 2 21.82278085642708 14.399304444837211 4.663253548276421 0 0 0
279 2 24.940321097020007 14.399304444837101 4.663253548276394 0 0 0
280 1 26.4990912173162 15.299261088588395 3.1043466666666997 0 0 0
281 2 28.05786133761227 14.399304444837046 4.663253548276449 0 0 0
282 1 29.616631457908337 15.29926108858838 3.1043466666667334 0 0 0
283 2 31.175401578204475 14.399304444837158 4.663253548276498 0 0 0
284 1 32.73417169850064 15.299261088588352 3.104346666666663 0 0 0
285 1 35.85171193909295 15.299261088588377 3.1043466666666983 0 0 0
286 2 34.29294181879672 14.39930444483719 4.663253548276523 0 0 0
287 1 38.96925217968549 15.299261088588244 3.1043466666666792 0 0 0
288 2 37.41048205938928 14.399304444837034 4.663253548276419 0 0 0
289 2 1.5587692925767538 17.099174030276043 4.663253548276692 0 0 0
290 2 4.676309533168448 17.09917403027502 4.663253548276758 0 0 0
291 1 3.117539412872423 17.999130674027054 3.1043466666666157 0 0 0
292 1 6.2350796534642985 17.999130674026002 3.1043466666665642 0 0 0
293 2 7.793849773760628 17.0991740302753 4.663253548276535 0 0 0
294 1 9.352619894057344 17.99913067402614 3.104346666666915 0 0 0
295 2 10.911390014353907 17.099174030274973 4.663253548276502 0 0 0
296 1 12.470160134649692 17.999130674026393 3.1043466666665096 0 0 0
297 2 14.028930254945617 17.099174030275094 4.6632535482763915 0 0 0
298 1 15.587700375241631 17.99913067402653 3.1043466666666566 0 0 0
299 2 17.146470495537674 17.09917403027521 4.663253548276449 0 0 0
300 2 20.264010736130594 17.099174030275314 4.663253548276405 0 0 0
301 1 18.7052406158341 17.99913067402649 3.104346666666756 0 0 0
302 1 21.82278085642705 17.999130674026496 3.104346666666691 0 0 0
303 2 23.38155097672353 17.099174030275293 4.663253548276431 0 0 0
304 1 24.94032109702001 17.999130674026496 3.1043466666666917 0 0 0
305 2 26.499091217316227 17.09917403027528 4.663253548276509 0 0 0
306 1 28.057861337612167 17.99913067402668 3.10434666666668 0 0 0
307 2 29.616631457908426 17.099174030275265 4.663253548276471 0 0 0
308 1 31.175401578204475 17.999130674026606 3.104346666666708 0 0 0
309 2 32.73417169850075 17.099174030275258 4.66325354827641 0 0 0
310 2 35.85171193909301 17.099174030275268 4.663253548276433 0 0 0
311 1 34.292941818796784 17.999130674026524 3.1043466666666526 0 0 0
312 2 38.96925217968559 17.09917403027515 4.663253548276501 0 0 0
313 1 37.41048205938938 17.999130674026524 3.1043466666667374 0 0 0
314 1 1.5587692925747167 20.69900025946463 3.104346666666768 0 0 0
315 1 4.676309533167567 20.69900025946419 3.104346666666819 0 0 0
316 2 3.1175394128708094 19.79904361571323 4.663253548277188 0 0 0
317 1 7.793849773761634 20.69900025946441 3.1043466666668476 0 0 0
318 2 6.235079653464751 19.79904361571316 4.663253548276221 0 0 0
319 2 9.352619894058186 19.79904361571331 4.663253548276505 0 0 0
320 1 10.911390014354073 20.6990002594646 3.1043466666666375 0 0 0
321 2 12.47016013464978 19.799043615713288 4.663253548276383 0 0 0
322 1 14.02893025494564 20.699000259464782 3.104346666666592 0 0 0
323 2 15.587700375241365 19.799043615713433 4.663253548276475 0 0 0
324 1 17.146470495537642 20.699000259464697 3.104346666666759 0 0 0
325 1 20.264010736130544 20.6990002594646 3.1043466666666917 0 0 0
326 2 18.70524061583401 19.799043615713522 4.663253548276468 0 0 0
327 1 23.381550976723645 20.69900025946467 3.1043466666666633 0 0 0
328 2 21.822780856427137 19.799043615713543 4.6632535482763995 0 0 0
329 2 24.94032109701997 19.799043615713483 4.663253548276393 0 0 0
330 1 26.499091217316217 20.699000259464814 3.1043466666666593 0 0 0
331 2 28.057861337612206 19.799043615713426 4.663253548276438 0 0 0
332 1 29.61663145790844 20.69900025946478 3.104346666666697 0 0 0
333 2 31.175401578204458 19.79904361571342 4.663253548276488 0 0 0
334 1 32.73417169850069 20.699000259464682 3.104346666666729 0 0 0
335 1 35.85171193909294 20.699000259464707 3.104346666666686 0 0 0
336 2 34.29294181879672 19.799043615713337 4.663253548276448 0 0 0
337 1 38.969252179685576 20.699000259464697 3.1043466666666713 0 0 0
338 2 37.41048205938924 19.799043615713522 4.663253548276414 0 0 0
339 2 1.558769292575824 22.498913201151765 4.663253548276353 0 0 0
340 2 4.676309533168511 22.498913201151055 4.663253548276871 0 0 0
341 1 3.117539412871954 23.398869844903064 3.1043466666666837 0 0 0
342 1 6.235079653464372 23.398869844902492 3.1043466666668476 0 0 0
343 2 7.793849773761165 22.49891320115163 4.663253548276474 0 0 0
344 1 9.352619894057625 23.39886984490279 3.1043466666667703 0 0 0
345 2 10.911390014353914 22.498913201151506 4.663253548276377 0 0 0
346 1 12.470160134649795 23.398869844902805 3.1043466666665034 0 0 0
347 2 14.028930254945692 22.49891320115157 4.663253548276395 0 0 0
348 1 15.58770037524178 23.39886984490289 3.1043466666666637 0 0 0
349 2 17.146470495537724 22.49891320115165 4.663253548276446 0 0 0
350 2 20.264010736130547 22.498913201151794 4.663253548276445 0 0 0
351 1 18.705240615834125 23.398869844902737 3.1043466666667423 0 0 0
352 1 21.822780856427094 23.39886984490279 3.1043466666666784 0 0 0
353 2 23.38155097672357 22.49891320115159 4.663253548276424 0 0 0
354 1 24.940321097019844 23.39886984490282 3.104346666666684 0 0 0
355 2 26.4990912173161 22.498913201151634 4.6632535482764395 0 0 0
356 1 28.05786133761222 23.398869844902848 3.1043466666666775 0 0 0
357 2 29.616631457908344 22.498913201151634 4.66325354827647 0 0 0
358 1 31.17540157820432 23.39886984490281 3.104346666666673 0 0 0
359 2 32.73417169850049 22.498913201151584 4.663253548276434 0 0 0
360 2 35.85171193909297 22.4989132011517 4.66325354827646 0 0 0
361 1 34.292941818796606 23.398869844902876 3.1043466666667032 0 0 0
362 2 38.96925217968559 22.498913201151634 4.663253548276431 0 0 0
363 1 37.410482059389324 23.398869844902876 3.1043466666666775 0 0 0
364 1 1.55876929257443 26.098739430339702 3.1043466666667014 0 0 0
365 1 4.676309533167919 26.098739430341006 3.10434666666677 0 0 0
366 2 3.1175394128719103 25.198782786589796 4.663253548277207 0 0 0
367 1 7.793849773761787 26.09873943034109 3.104346666666905 0 0 0
368 2 6.235079653465321 25.198782786589973 4.663253548276435 0 0 0
369 2 9.352619894058117 25.198782786589828 4.663253548276471 0 0 0
370 1 10.911390014353916 26.09873943034109 3.10434666666668 0 0 0
371 2 12.470160134649825 25.1987827865897 4.6632535482763435 0 0 0
372 1 14.028930254945609 26.098739430340963 3.1043466666665416 0 0 0
373 2 15.587700375241447 25.19878278658978 4.6632535482764705 0 0 0
374 1 17.14647049553765 26.098739430341062 3.1043466666667587 0 0 0
375 1 20.264010736130558 26.09873943034092 3.1043466666667143 0 0 0
376 2 18.705240615834008 25.19878278658984 4.663253548276502 0 0 0
377 1 23.381550976723616 26.098739430340867 3.1043466666666593 0 0 0
378 2 21.822780856427098 25.19878278658981 4.663253548276429 0 0 0
379 2 24.940321097019922 25.198782786589746 4.663253548276394 0 0 0
380 1 26.499091217316177 26.09873943034086 3.1043466666666926 0 0 0
381 2 28.057861337612188 25.198782786589685 4.663253548276429 0 0 0
382 1 29.61663145790829 26.09873943034089 3.1043466666666664 0 0 0
383 2 31.175401578204507 25.19878278658973 4.6632535482764315 0 0 0
384 1 32.73417169850073 26.098739430340963 3.104346666666684 0 0 0
385 1 35.85171193909301 26.09873943034106 3.10434666666672 0 0 0
386 2 34.29294181879687 25.198782786589714 4.663253548276491 0 0 0
387 1 38.969252179685675 26.098739430341066 3.104346666666679 0 0 0
388 2 37.41048205938931 25.198782786589828 4.663253548276439 0 0 0
389 2 1.5587692925759515 27.8986523720288 4.663253548276752 0 0 0
390 2 4.676309533168582 27.898652372028224 4.663253548276922 0 0 0
391 2 38.96925217968559 27.89865237202792 4.663253548276493 0 0 0
393 2 7.793849773760937 27.898652372028064 4.6632535482766455 0 0 0
392 2 35.851711939092986 27.89865237202784 4.663253548276486 0 0 0
394 2 32.73417169850064 27.89865237202784 4.663253548276437 0 0 0
395 2 10.911390014353803 27.89865237202775 4.663253548276582 0 0 0
396 2 29.616631457908355 27.898652372027826 4.663253548276463 0 0 0
397 2 14.028930254945665 27.898652372027875 4.663253548276393 0 0 0
398 2 26.499091217316103 27.89865237202778 4.663253548276478 0 0 0
399 2 17.14647049553771 27.898652372027872 4.663253548276474 0 0 0
400 2 20.264010736130594 27.898652372027936 4.663253548276426 0 0 0
401 2 23.38155097672357 27.898652372027907 4.663253548276401 0 0 0
402 3 3.117539412870768 30.598521957467394 1.545439785056951 0 0 0
403 3 6.235079653465055 30.598521957466303 1.5454397850571846 0 0 0
404 3 9.352619894058249 30.598521957465874 1.5454397850571033 0 0 0
405 3 12.47016013464967 30.598521957466 1.5454397850567578 0 0 0
406 3 15.587700375241672 30.598521957466037 1.545439785056874 0 0 0
407 3 18.705240615834082 30.598521957465913 1.545439785056996 0 0 0
408 3 21.8227808564271 30.598521957466 1.545439785056932 0 0 0
409 3 24.94032109701995 30.598521957465994 1.5454397850569541 0 0 0
410 3 28.057861337612266 30.598521957465955 1.5454397850569275 0 0 0
411 3 31.175401578204358 30.59852195746594 1.5454397850569652 0 0 0
412 3 34.292941818796734 30.59852195746605 1.5454397850569188 0 0 0
413 3 37.41048205938924 30.598521957466023 1.5454397850569528 0 0 0
414 3 1.5587692925769017 33.298391542903964 1.5454397850568413 0 0 0
415 3 4.676309533167459 33.29839154290468 1.545439785056785 0 0 0
416 3 7.7938497737612495 33.29839154290411 1.545439785057066 0 0 0
417 3 10.911390014353742 33.2983915429041 1.5454397850568569 0 0 0
418 3 14.028930254945754 33.29839154290436 1.5454397850567603 0 0 0
419 3 17.1464704955378 33.298391542904206 1.5454397850570412 0 0 0
420 3 20.264010736130544 33.298391542904135 1.5454397850569515 0 0 0
421 3 23.381550976723542 33.298391542904234 1.545439785056962 0 0 0
422 3 26.499091217316078 33.29839154290417 1.5454397850569455 0 0 0
423 3 29.61663145790825 33.298391542904206 1.545439785056937 0 0 0
424 3 32.73417169850049 33.2983915429041 1.5454397850569606 0 0 0
425 3 35.85171193909301 33.29839154290404 1.5454397850569508 0 0 0
426 3 38.96925217968559 33.29839154290417 1.5454397850569552 0 0 0
427 3 3.1175394128714244 35.99826112834296 1.5454397850571424 0 0 0
428 3 6.235079653464668 35.99826112834258 1.545439785057212 0 0 0
429 3 9.352619894057835 35.99826112834256 1.5454397850570882 0 0 0
430 3 12.470160134649634 35.998261128342484 1.545439785056704 0 0 0
431 3 15.587700375241482 35.99826112834243 1.5454397850568615 0 0 0
432 3 18.705240615834004 35.99826112834236 1.5454397850570423 0 0 0
433 3 21.822780856427062 35.99826112834246 1.545439785056943 0 0 0
434 3 24.940321097020067 35.998261128342385 1.5454397850568937 0 0 0
435 3 28.057861337612206 35.99826112834229 1.545439785056918 0 0 0
436 3 31.175401578204426 35.99826112834236 1.5454397850569204 0 0 0
437 3 34.292941818796855 35.99826112834255 1.5454397850570056 0 0 0
438 3 37.410482059389224 35.99826112834234 1.5454397850569384 0 0 0
439 3 1.5587692925747112 38.698130713780714 1.5454397850569395 0 0 0
440 3 4.676309533167724 38.6981307137804 1.5454397850566433 0 0 0
441 3 7.793849773761163 38.69813071378059 1.5454397850571475 0 0 0
442 3 10.91139001435357 38.69813071378061 1.5454397850570436 0 0 0
443 3 14.02893025494569 38.698130713780714 1.545439785056725 0 0 0