LAMMPS data file via write_data, version 2 Aug 2023, timestep = 202, units = metal

28704 atoms
3 atom types

0 935.2625695839588 xlo xhi
0 86.39585204086559 ylo yhi
0 50 zlo zhi
0 0 0 xy xz yz

Masses

1 95.94
2 32.065
3 32.065

Atoms # atomic

1 3 1.558770121457053 0.8999568284838486 1.5454400543778686 0 0 0
2 3 4.6763120202231825 0.8999568283655758 1.5454400542453297 0 0 0
3 3 7.793853918813068 0.8999568283668797 1.5454400542469056 0 0 0
4 3 10.911395817425724 0.899956828369047 1.5454400542501958 0 0 0
5 3 14.028937716039609 0.8999568283678623 1.545440054247356 0 0 0
6 3 17.14647961465378 0.8999568283677449 1.545440054249237 0 0 0
7 3 20.26402151326007 0.8999568283796052 1.5454400542308757 0 0 0
8 3 23.381563411869365 0.8999568283793173 1.5454400542362199 0 0 0
9 3 26.499105310485973 0.8999568283753484 1.545440054245043 0 0 0
10 3 3.1175410709101854 3.599827204636349 1.545440054229116 0 0 0
11 3 6.235082969492065 3.5998272046623088 1.5454400542457738 0 0 0
12 3 9.352624868117616 3.5998272046573545 1.5454400542407334 0 0 0
13 3 12.470166766728946 3.5998272046590425 1.5454400542398083 0 0 0
14 3 15.587708665344136 3.599827204657571 1.5454400542404296 0 0 0
15 3 18.705250563959932 3.5998272046583346 1.5454400542339617 0 0 0
16 3 21.82279246256899 3.5998272046565036 1.5454400542374072 0 0 0
17 3 24.9403343611823 3.5998272046570228 1.5454400542395499 0 0 0
18 3 28.057876259800867 3.5998272046590936 1.5454400542436975 0 0 0
19 3 1.5587701215019383 6.299697581031923 1.5454400543163922 0 0 0
20 3 4.676312020217631 6.299697580930875 1.5454400542329991 0 0 0
21 3 7.793853918812154 6.299697580931187 1.5454400542373987 0 0 0
22 3 10.911395817425051 6.299697580933906 1.5454400542380982 0 0 0
23 3 14.028937716040323 6.299697580932616 1.5454400542372315 0 0 0
24 3 17.14647961465543 6.2996975809315305 1.5454400542398954 0 0 0
25 3 20.26402151326044 6.299697580931342 1.5454400542310398 0 0 0
26 3 23.381563411868363 6.299697580932485 1.5454400542375915 0 0 0
27 3 26.499105310485294 6.299697580934518 1.5454400542387978 0 0 0
28 3 3.117541070908483 8.999567957183736 1.5454400542180537 0 0 0
29 3 6.235082969489946 8.999567957216048 1.545440054246349 0 0 0
30 3 9.35262486811762 8.999567957208892 1.5454400542394775 0 0 0
31 3 12.470166766728555 8.999567957209884 1.5454400542403888 0 0 0
32 3 15.587708665344023 8.999567957209615 1.5454400542415132 0 0 0
33 3 18.70525056395914 8.999567957210058 1.5454400542336686 0 0 0
34 3 21.822792462569392 8.99956795720883 1.545440054237759 0 0 0
35 3 24.940334361184714 8.999567957207471 1.5454400542395341 0 0 0
36 3 28.0578762598002 8.999567957210363 1.5454400542392328 0 0 0
37 3 1.5587701214579666 11.699438333592935 1.5454400543714253 0 0 0
38 3 4.676312020224632 11.699438333485025 1.5454400542367586 0 0 0
39 3 7.793853918813556 11.699438333486029 1.5454400542387032 0 0 0
40 3 10.911395817426193 11.69943833348976 1.5454400542405982 0 0 0
41 3 14.02893771604002 11.699438333489088 1.5454400542398532 0 0 0
42 3 17.146479614654044 11.699438333485993 1.545440054241162 0 0 0
43 3 20.26402151326071 11.699438333484302 1.5454400542347888 0 0 0
44 3 23.381563411869106 11.69943833348593 1.545440054241477 0 0 0
45 3 26.499105310485735 11.699438333487514 1.5454400542421076 0 0 0
46 3 3.1175410709115194 14.39930870974684 1.5454400542270144 0 0 0
47 3 6.235082969494434 14.399308709771919 1.5454400542437652 0 0 0
48 3 9.352624868117765 14.399308709766506 1.5454400542400177 0 0 0
49 3 12.470166766729252 14.399308709769372 1.545440054239668 0 0 0
50 3 15.587708665345295 14.399308709768592 1.5454400542422615 0 0 0
51 3 18.705250563960323 14.399308709768022 1.545440054239798 0 0 0
52 3 21.822792462570177 14.399308709767254 1.5454400542384286 0 0 0
53 3 24.940334361185755 14.399308709768055 1.545440054244084 0 0 0
54 3 28.05787625980082 14.39930870976814 1.5454400542397073 0 0 0
55 3 1.5587701214920868 17.09917908614135 1.5454400543132032 0 0 0
56 3 4.676312020217913 17.099179086039744 1.5454400542293836 0 0 0
57 3 7.793853918811674 17.099179086041687 1.5454400542368392 0 0 0
58 3 10.911395817426705 17.099179086045794 1.5454400542387297 0 0 0
59 3 14.028937716038506 17.099179086044643 1.5454400542364939 0 0 0
60 3 17.146479614653558 17.099179086044046 1.5454400542372768 0 0 0
61 3 20.264021513265867 17.09917908604367 1.5454400542349795 0 0 0
62 3 23.381563411874943 17.09917908604194 1.5454400542330633 0 0 0
63 3 26.49910531048739 17.099179086046313 1.5454400542367392 0 0 0
64 3 3.117541070915869 19.799049462289908 1.5454400542092506 0 0 0
65 3 6.235082969489337 19.799049462323584 1.5454400542449542 0 0 0
66 3 9.35262486811805 19.7990494623186 1.54544005423934 0 0 0
67 3 12.47016676672813 19.799049462323893 1.545440054237816 0 0 0
68 3 15.58770866534513 19.799049462320795 1.5454400542440399 0 0 0
69 3 18.70525056396287 19.799049462320504 1.5454400542385847 0 0 0
70 3 21.82279246257302 19.79904946231706 1.5454400542358797 0 0 0
71 3 24.94033436118707 19.79904946231983 1.5454400542413822 0 0 0
72 3 28.057876259801514 19.79904946232012 1.5454400542352706 0 0 0
73 3 1.5587701214607441 22.498919838702463 1.5454400543696405 0 0 0
74 3 4.67631202022481 22.49891983859271 1.5454400542331266 0 0 0
75 3 7.793853918812415 22.498919838595572 1.5454400542393116 0 0 0
76 3 10.911395817426415 22.498919838600113 1.5454400542386777 0 0 0
77 3 14.028937716040547 22.49891983859993 1.5454400542384876 0 0 0
78 3 17.14647961465029 22.498919838599207 1.5454400542388254 0 0 0
79 3 20.26402151326076 22.498919838598407 1.5454400542397029 0 0 0
80 3 23.38156341187302 22.49891983859612 1.545440054239992 0 0 0
81 3 26.49910531048645 22.498919838597757 1.545440054239876 0 0 0
82 3 3.117541070913832 25.198790214852618 1.5454400542239741 0 0 0
83 3 6.235082969492656 25.198790214880276 1.5454400542441524 0 0 0
84 3 9.35262486811756 25.19879021487492 1.5454400542376059 0 0 0
85 3 12.470166766727386 25.19879021487538 1.5454400542365883 0 0 0
86 3 15.587708665343705 25.19879021487924 1.5454400542375653 0 0 0
87 3 18.70525056395861 25.198790214877054 1.5454400542338158 0 0 0
88 3 21.82279246257118 25.19879021487615 1.5454400542380144 0 0 0
89 3 24.940334361185606 25.19879021487844 1.5454400542400024 0 0 0
90 3 28.057876259799194 25.19879021487359 1.5454400542390054 0 0 0
91 3 1.5587701214789547 27.898660591245513 1.5454400543232738 0 0 0
92 3 4.676312020218676 27.89866059114508 1.5454400542283069 0 0 0
93 3 7.793853918812284 27.898660591149575 1.5454400542350655 0 0 0
94 3 10.911395817425374 27.898660591149657 1.5454400542366653 0 0 0
95 3 14.028937716040117 27.898660591148904 1.5454400542354194 0 0 0
96 3 17.146479614654126 27.898660591148477 1.545440054236832 0 0 0
97 3 20.264021513260968 27.898660591145216 1.545440054227881 0 0 0
98 3 23.3815634118707 27.89866059114922 1.5454400542323357 0 0 0
99 3 26.499105310485643 27.89866059115055 1.5454400542340851 0 0 0
100 2 1.5587701214555798 0.8999568284822909 4.663253278951421 0 0 0
101 2 4.6763120202235 0.8999568283657576 4.66325327909118 0 0 0
102 1 3.117541070811763 1.7999135944452955 3.1043466666639494 0 0 0
103 2 7.793853918813211 0.899956828366034 4.663253279085763 0 0 0
104 1 6.235082969486319 1.7999135943742905 3.1043466666657253 0 0 0
105 1 9.352624868116427 1.7999135943830098 3.1043466666664794 0 0 0
106 2 10.911395817425975 0.8999568283694803 4.663253279083412 0 0 0
107 1 12.470166766721727 1.799913594378965 3.1043466666675887 0 0 0
108 2 14.028937716039295 0.899956828367825 4.663253279085498 0 0 0
109 1 15.587708665338068 1.7999135943806948 3.10434666666619 0 0 0
110 2 17.146479614653842 0.899956828367759 4.66325327908464 0 0 0
111 2 20.264021513260122 0.8999568283794847 4.663253279102276 0 0 0
112 1 18.705250563951164 1.799913594374325 3.104346666666463 0 0 0
113 2 23.38156341186939 0.8999568283793434 4.663253279097098 0 0 0
114 1 21.822792462584882 1.7999135943834312 3.1043466666667525 0 0 0
115 2 26.499105310485923 0.8999568283754515 4.663253279088581 0 0 0
116 1 24.94033436119711 1.7999135943831042 3.1043466666666784 0 0 0
117 1 28.057876259799013 1.7999135943827074 3.1043466666664723 0 0 0
118 1 1.5587701214193668 4.4997839704768205 3.1043466666615265 0 0 0
119 1 4.676312020246309 4.49978397065153 3.1043466666704944 0 0 0
120 2 3.117541070912361 3.599827204636928 4.663253279106082 0 0 0
121 1 7.793853918811229 4.499783970663766 3.1043466666677335 0 0 0
122 2 6.235082969491189 3.5998272046632245 4.6632532790855254 0 0 0
123 2 9.35262486811708 3.599827204657279 4.6632532790932375 0 0 0
124 1 10.911395817425767 4.499783970655121 3.104346666664644 0 0 0
125 2 12.470166766729557 3.5998272046586806 4.663253279093562 0 0 0
126 1 14.028937716038486 4.4997839706594425 3.104346666667658 0 0 0
127 2 15.587708665343854 3.599827204657754 4.663253279092833 0 0 0
128 1 17.146479614643088 4.499783970666248 3.1043466666663555 0 0 0
129 1 20.264021513261753 4.499783970659891 3.1043466666670114 0 0 0
130 2 18.705250563960046 3.599827204658391 4.663253279099447 0 0 0
131 1 23.38156341187702 4.499783970659874 3.104346666666263 0 0 0
132 2 21.822792462568835 3.5998272046564654 4.663253279095947 0 0 0
133 1 26.499105310489128 4.499783970656303 3.1043466666672277 0 0 0
134 2 24.940334361182508 3.599827204657019 4.663253279093706 0 0 0
135 2 28.057876259800643 3.5998272046591517 4.663253279089688 0 0 0
136 2 1.5587701215002647 6.299697581033364 4.6632532790190595 0 0 0
137 2 4.676312020218266 6.299697580929337 4.6632532790999 0 0 0
138 1 3.1175410708241733 7.199654346988501 3.1043466666632913 0 0 0
139 2 7.7938539188120215 6.299697580930855 4.663253279095941 0 0 0
140 1 6.2350829694917955 7.199654346930435 3.1043466666667574 0 0 0
141 1 9.352624868116871 7.199654346941056 3.1043466666658137 0 0 0
142 2 10.911395817425445 6.299697580934453 4.663253279095993 0 0 0
143 1 12.47016676672348 7.199654346941886 3.104346666667877 0 0 0
144 2 14.028937716039918 6.299697580932461 4.663253279095288 0 0 0
145 1 15.587708665334771 7.199654346940728 3.1043466666661064 0 0 0
146 2 17.146479614655597 6.2996975809315465 4.663253279093887 0 0 0
147 2 20.264021513260484 6.29969758093129 4.663253279102008 0 0 0
148 1 18.70525056394714 7.199654346932206 3.1043466666666997 0 0 0
149 2 23.381563411868317 6.299697580932619 4.66325327909589 0 0 0
150 1 21.822792462587376 7.199654346939129 3.1043466666668613 0 0 0
151 2 26.499105310485266 6.299697580934362 4.663253279094315 0 0 0
152 1 24.940334361197163 7.1996543469436745 3.104346666666682 0 0 0
153 1 28.057876259801965 7.199654346938394 3.1043466666665664 0 0 0
154 1 1.5587701214187344 9.899524723061923 3.104346666669084 0 0 0
155 1 4.676312020253705 9.899524723208712 3.1043466666670625 0 0 0
156 2 3.1175410709079188 8.9995679571849 4.66325327911556 0 0 0
157 1 7.793853918810321 9.89952472322012 3.104346666667488 0 0 0
158 2 6.2350829694901035 8.999567957216254 4.663253279086277 0 0 0
159 2 9.352624868117283 8.999567957209107 4.663253279094218 0 0 0
160 1 10.911395817427096 9.899524723211272 3.1043466666659394 0 0 0
161 2 12.470166766728783 8.999567957209514 4.663253279092512 0 0 0
162 1 14.02893771603959 9.899524723213181 3.104346666667186 0 0 0
163 2 15.587708665343873 8.999567957209766 4.6632532790921415 0 0 0
164 1 17.14647961464253 9.899524723221246 3.1043466666661317 0 0 0
165 1 20.26402151326321 9.899524723220988 3.1043466666668746 0 0 0
166 2 18.70525056395925 8.99956795721001 4.663253279099771 0 0 0
167 1 23.381563411873216 9.899524723221091 3.104346666666475 0 0 0
168 2 21.822792462569325 8.999567957208772 4.663253279095514 0 0 0
169 1 26.499105310483852 9.89952472321728 3.1043466666666544 0 0 0
170 2 24.94033436118474 8.999567957207464 4.6632532790938885 0 0 0
171 2 28.057876259800167 8.999567957210381 4.663253279094173 0 0 0
172 2 1.5587701214567053 11.699438333592267 4.663253278960212 0 0 0
173 2 4.676312020224952 11.699438333484524 4.663253279098049 0 0 0
174 1 3.1175410708077704 12.599395099546237 3.104346666664255 0 0 0
175 2 7.793853918813723 11.699438333485617 4.6632532790947 0 0 0
176 1 6.235082969485368 12.599395099478164 3.1043466666659487 0 0 0
177 1 9.35262486811502 12.599395099489207 3.1043466666664097 0 0 0
178 2 10.911395817426397 11.699438333490084 4.663253279092698 0 0 0
179 1 12.470166766722233 12.59939509948408 3.1043466666676798 0 0 0
180 2 14.028937716039701 11.699438333489054 4.6632532790930625 0 0 0
181 1 15.587708665335535 12.599395099487046 3.1043466666661033 0 0 0
182 2 17.146479614654233 11.699438333486048 4.663253279092596 0 0 0
183 2 20.264021513260705 11.699438333484325 4.663253279098269 0 0 0
184 1 18.705250563949228 12.59939509948714 3.1043466666668422 0 0 0
185 2 23.381563411869053 11.69943833348598 4.663253279091929 0 0 0
186 1 21.822792462586072 12.599395099487749 3.104346666666874 0 0 0
187 2 26.499105310485767 11.699438333487493 4.663253279091237 0 0 0
188 1 24.940334361195955 12.599395099492044 3.1043466666665376 0 0 0
189 1 28.057876259802207 12.599395099488653 3.104346666666776 0 0 0
190 1 1.5587701214236742 15.299265475584622 3.104346666661767 0 0 0
191 1 4.67631202024076 15.299265475757231 3.1043466666711343 0 0 0
192 2 3.117541070913786 14.399308709747437 4.663253279107601 0 0 0
193 1 7.79385391880932 15.299265475765646 3.104346666666631 0 0 0
194 2 6.2350829694933685 14.399308709772722 4.663253279087558 0 0 0
195 2 9.352624868117545 14.399308709766382 4.663253279094091 0 0 0
196 1 10.911395817426735 15.299265475758265 3.104346666665357 0 0 0
197 2 12.47016676672972 14.399308709769052 4.663253279093435 0 0 0
198 1 14.028937716036973 15.299265475759405 3.1043466666675434 0 0 0
199 2 15.587708665345016 14.39930870976877 4.6632532790911885 0 0 0
200 1 17.146479614642757 15.299265475759748 3.1043466666661916 0 0 0
201 1 20.26402151325629 15.299265475760555 3.1043466666667223 0 0 0
202 2 18.705250563960433 14.399308709767926 4.6632532790936345 0 0 0
203 1 23.381563411875753 15.299265475760864 3.104346666666561 0 0 0
204 2 21.822792462570106 14.399308709767192 4.663253279094851 0 0 0
205 1 26.49910531047768 15.299265475754833 3.1043466666668453 0 0 0
206 2 24.94033436118582 14.399308709768103 4.663253279089296 0 0 0
207 2 28.057876259800715 14.39930870976811 4.663253279093602 0 0 0
208 2 1.5587701214906615 17.099179086142687 4.663253279021823 0 0 0
209 2 4.676312020218369 17.099179086038017 4.663253279103318 0 0 0
210 1 3.1175410708233864 17.9991358520971 3.104346666664117 0 0 0
211 2 7.793853918811789 17.099179086041556 4.663253279097369 0 0 0
212 1 6.2350829694952745 17.999135852039544 3.1043466666657267 0 0 0
213 1 9.352624868116198 17.999135852046738 3.1043466666660944 0 0 0
214 2 10.911395817427003 17.099179086046174 4.663253279094957 0 0 0
215 1 12.470166766722498 17.999135852034716 3.1043466666677806 0 0 0
216 2 14.028937716038147 17.0991790860445 4.663253279096149 0 0 0
217 1 15.587708665338644 17.999135852046614 3.1043466666661113 0 0 0
218 2 17.146479614653764 17.099179086044117 4.663253279096452 0 0 0
219 2 20.264021513265792 17.099179086043677 4.6632532790981776 0 0 0
220 1 18.705250563948596 17.999135852042308 3.1043466666669244 0 0 0
221 2 23.381563411874964 17.099179086041975 4.6632532791003225 0 0 0
222 1 21.8227924625655 17.999135852046482 3.1043466666667037 0 0 0
223 2 26.499105310487327 17.09917908604625 4.6632532790966 0 0 0
224 1 24.94033436119213 17.999135852045107 3.104346666666694 0 0 0
225 1 28.057876259800842 17.999135852041203 3.1043466666664914 0 0 0
226 1 1.5587701213952239 20.699006228169747 3.104346666669415 0 0 0
227 1 4.67631202025142 20.699006228315245 3.104346666666221 0 0 0
228 2 3.1175410709150877 19.79904946229103 4.663253279124202 0 0 0
229 1 7.793853918811609 20.6990062283268 3.1043466666687283 0 0 0
230 2 6.235082969490024 19.799049462324106 4.663253279087934 0 0 0
231 2 9.352624868117285 19.799049462318845 4.6632532790938495 0 0 0
232 1 10.911395817427222 20.699006228312708 3.1043466666654207 0 0 0
233 2 12.470166766728543 19.79904946232351 4.6632532790953745 0 0 0
234 1 14.028937716040717 20.699006228315934 3.1043466666672317 0 0 0
235 2 15.587708665344937 19.799049462320955 4.663253279089535 0 0 0
236 1 17.146479614638455 20.699006228318822 3.104346666666278 0 0 0
237 1 20.264021513249894 20.699006228320467 3.1043466666667534 0 0 0
238 2 18.705250563962952 19.79904946232038 4.663253279094745 0 0 0
239 1 23.38156341187509 20.69900622832533 3.104346666666661 0 0 0
240 2 21.822792462572988 19.79904946231707 4.663253279097417 0 0 0
241 1 26.499105310472853 20.699006228319472 3.1043466666667117 0 0 0
242 2 24.940334361187077 19.799049462319825 4.663253279091914 0 0 0
243 2 28.057876259801496 19.799049462320173 4.663253279098175 0 0 0
244 2 1.5587701214595289 22.498919838701912 4.663253278960844 0 0 0
245 2 4.676312020224725 22.49891983859249 4.66325327910201 0 0 0
246 1 3.1175410708019795 23.39887660465387 3.104346666665029 0 0 0
247 2 7.793853918812734 22.498919838594784 4.663253279093788 0 0 0
248 1 6.235082969490881 23.398876604586484 3.1043466666652653 0 0 0
249 1 9.352624868114507 23.39887660459513 3.104346666666733 0 0 0
250 2 10.911395817426527 22.49891983860052 4.663253279095018 0 0 0
251 1 12.470166766721634 23.39887660459228 3.104346666667203 0 0 0
252 2 14.028937716040307 22.49891983859984 4.663253279094456 0 0 0
253 1 15.587708665338228 23.39887660458225 3.1043466666662867 0 0 0
254 2 17.146479614650456 22.498919838599274 4.663253279094792 0 0 0
255 2 20.264021513260666 22.49891983859839 4.6632532790935315 0 0 0
256 1 18.70525056396149 23.398876604585865 3.104346666666916 0 0 0
257 2 23.38156341187306 22.498919838596095 4.66325327909342 0 0 0
258 1 21.822792462575414 23.398876604594033 3.104346666666551 0 0 0
259 2 26.49910531048643 22.498919838597743 4.663253279093474 0 0 0
260 1 24.940334361192356 23.398876604590843 3.1043466666666797 0 0 0
261 1 28.057876259800626 23.398876604601035 3.1043466666665736 0 0 0
262 1 1.5587701214197853 26.098746980707546 3.104346666662722 0 0 0
263 1 4.676312020244153 26.09874698086713 3.104346666668729 0 0 0
264 2 3.117541070915432 25.19879021485288 4.663253279111023 0 0 0
265 1 7.793853918809841 26.098746980873248 3.1043466666684583 0 0 0
266 2 6.235082969492376 25.198790214881207 4.663253279087782 0 0 0
267 2 9.352624868116814 25.198790214874933 4.663253279095724 0 0 0
268 1 10.911395817426904 26.098746980871198 3.104346666664977 0 0 0
269 2 12.470166766728008 25.19879021487511 4.66325327909686 0 0 0
270 1 14.02893771604375 26.098746980874342 3.104346666667625 0 0 0
271 2 15.587708665343344 25.198790214879416 4.663253279095802 0 0 0
272 1 17.146479614642445 26.098746980875983 3.104346666666083 0 0 0
273 1 20.264021513260385 26.09874698087324 3.1043466666670136 0 0 0
274 2 18.705250563958828 25.198790214876958 4.663253279099488 0 0 0
275 1 23.38156341187403 26.098746980867595 3.1043466666666464 0 0 0
276 2 21.822792462571076 25.198790214876233 4.6632532790952546 0 0 0
277 1 26.499105310479806 26.098746980865226 3.1043466666668085 0 0 0
278 2 24.940334361185666 25.198790214878443 4.66325327909328 0 0 0
279 2 28.057876259799126 25.198790214873622 4.663253279094353 0 0 0
280 2 1.5587701214792138 27.898660591246895 4.663253279011091 0 0 0
281 2 4.676312020217591 27.89866059114418 4.663253279104387 0 0 0
283 2 7.793853918812902 27.89866059114875 4.663253279099028 0 0 0
286 2 10.91139581742553 27.898660591150122 4.663253279097393 0 0 0
288 2 14.028937716039927 27.898660591148722 4.663253279097157 0 0 0
287 2 17.146479614654165 27.898660591148616 4.663253279096899 0 0 0
285 2 20.26402151326093 27.89866059114509 4.663253279105356 0 0 0
284 2 23.38156341187071 27.898660591149177 4.663253279101184 0 0 0
282 2 26.4991053104857 27.89866059115052 4.6632532790991785 0 0 0
289 3 3.1175410709197635 30.598530967395725 1.5454400542069786 0 0 0
290 3 6.235082969489654 30.598530967430317 1.5454400542463074 0 0 0
291 3 9.352624868115882 30.598530967425223 1.5454400542369213 0 0 0
292 3 12.470166766730289 30.598530967426484 1.5454400542421078 0 0 0
293 3 15.587708665344604 30.59853096742907 1.5454400542415383 0 0 0
294 3 18.70525056396132 30.598530967428147 1.5454400542436377 0 0 0
295 3 21.82279246257325 30.59853096742107 1.5454400542381546 0 0 0
296 3 24.94033436118553 30.598530967425216 1.5454400542409839 0 0 0
297 3 28.057876259800437 30.598530967422256 1.5454400542418745 0 0 0
298 3 1.5587701215040202 33.298401343782665 1.5454400543134437 0 0 0
299 3 4.676312020213985 33.29840134369878 1.5454400542305535 0 0 0
300 3 7.79385391881162 33.298401343698856 1.545440054231459 0 0 0
301 3 10.911395817424363 33.298401343695964 1.5454400542317055 0 0 0
302 3 14.028937716038486 33.29840134370263 1.5454400542320827 0 0 0
303 3 17.1464796146525 33.29840134370314 1.545440054231893 0 0 0
304 3 20.264021513265273 33.2984013437014 1.5454400542332902 0 0 0
305 3 23.38156341187359 33.29840134369967 1.5454400542324669 0 0 0
306 3 26.499105310484534 33.29840134370239 1.5454400542365594 0 0 0
307 3 3.1175410709280067 35.99827171994995 1.545440054208303 0 0 0
308 3 6.235082969489803 35.99827171997642 1.545440054246442 0 0 0
309 3 9.352624868117694 35.998271719971164 1.5454400542416358 0 0 0
310 3 12.47016676672571 35.99827171997226 1.5454400542412337 0 0 0
311 3 15.587708665343536 35.99827171997038 1.5454400542380498 0 0 0
312 3 18.70525056396369 35.9982717199711 1.545440054233 0 0 0
313 3 21.82279246257118 35.998271719975186 1.545440054237791 0 0 0
314 3 24.94033436118443 35.99827171997454 1.545440054236179 0 0 0
315 3 28.05787625979793 35.99827171997329 1.5454400542375548 0 0 0
316 3 1.5587701214988243 38.69814209634594 1.545440054322903 0 0 0
317 3 4.67631202021514 38.69814209624711 1.5454400542339415 0 0 0
318 3 7.793853918812247 38.698142096252504 1.5454400542403224 0 0 0
319 3 10.911395817424898 38.69814209625757 1.5454400542405249 0 0 0
320 3 14.028937716038348 38.698142096250976 1.5454400542406608 0 0 0
321 3 17.1464796146573 38.69814209624977 1.5454400542549436 0 0 0
322 3 20.26402151326708 38.69814209625903 1.545440054238663 0 0 0
323 3 23.38156341187183 38.698142096255374 1.5454400542412245 0 0 0
324 3 26.49910531048638 38.69814209625405 1.545440054242447 0 0 0
325 3 3.1175410709113 41.39801247249488 1.5454400542147968 0 0 0
326 3 6.235082969488479 41.398012472530574 1.545440054245161 0 0 0
327 3 9.352624868117212 41.39801247252791 1.5454400542315674 0 0 0
328 3 12.470166766728893 41.39801247252713 1.5454400542344051 0 0 0
329 3 15.587708665343378 41.398012472527185 1.5454400542370288 0 0 0
330 3 18.705250563963624 41.398012472534525 1.5454400542294167 0 0 0
331 3 21.82279246257497 41.39801247253399 1.5454400542267306 0 0 0
332 3 24.94033436118395 41.398012472526645 1.545440054232589 0 0 0
333 3 28.057876259800512 41.398012472531 1.5454400542324203 0 0 0
334 3 1.5587701214715006 44.09788284892131 1.5454400543650586 0 0 0
335 3 4.676312020227649 44.09788284880746 1.54544005424077 0 0 0
336 3 7.793853918813095 44.09788284880827 1.5454400542493003 0 0 0
337 3 10.911395817421385 44.09788284881135 1.545440054251177 0 0 0
338 3 14.028937716033337 44.09788284880514 1.545440054245412 0 0 0
339 3 17.146479614659167 44.09788284880292 1.5454400542485942 0 0 0
340 3 20.26402151326936 44.09788284880391 1.5454400542380442 0 0 0
341 3 23.38156341187507 44.09788284880696 1.5454400542434994 0 0 0
342 3 26.49910531049095 44.09788284880489 1.5454400542460867 0 0 0
343 3 3.117541070910221 46.79775322506845 1.5454400542173132 0 0 0
344 3 6.23508296948633 46.79775322509559 1.5454400542349864 0 0 0
345 3 9.352624868119543 46.797753225092066 1.5454400542257865 0 0 0
346 3 12.470166766726788 46.79775322509157 1.5454400542327322 0 0 0
347 3 15.587708665345444 46.79775322508095 1.5454400542450581 0 0 0
348 3 18.70525056396134 46.79775322508967 1.5454400542390476 0 0 0
349 3 21.822792462571222 46.79775322509149 1.5454400542371818 0 0 0
350 3 24.94033436118228 46.79775322508468 1.5454400542404807 0 0 0
351 3 28.05787625980376 46.79775322509079 1.545440054229632 0 0 0
352 3 1.5587701214706744 49.49762360148286 1.5454400543415636 0 0 0
353 3 4.676312020223517 49.4976236013578 1.5454400542278952 0 0 0
354 3 7.793853918814357 49.49762360134794 1.5454400542382807 0 0 0
355 3 10.911395817428511 49.49762360136728 1.545440054239642 0 0 0
356 3 14.028937716037483 49.49762360136649 1.5454400542453803 0 0 0
357 3 17.14647961464605 49.4976236013685 1.545440054240491 0 0 0
358 3 20.26402151326035 49.49762360136862 1.5454400542384956 0 0 0
359 3 23.381563411869134 49.49762360136843 1.5454400542348716 0 0 0
360 3 26.499105310487607 49.49762360136351 1.5454400542540134 0 0 0
361 3 3.11754107091883 52.19749397760899 1.545440054209252 0 0 0
362 3 6.235082969492542 52.19749397763018 1.5454400542391404 0 0 0
363 3 9.352624868117424 52.197493977626074 1.5454400542259434 0 0 0
364 3 12.470166766727484 52.19749397764087 1.5454400542217892 0 0 0
365 3 15.587708665347352 52.19749397764548 1.5454400542299214 0 0 0
366 3 18.705250563957748 52.19749397763988 1.5454400542310434 0 0 0
367 3 21.82279246256626 52.19749397763712 1.5454400542278308 0 0 0
368 3 24.940334361185478 52.197493977635006 1.5454400542265145 0 0 0
369 3 28.057876259796558 52.19749397764256 1.5454400542287854 0 0 0
370 3 1.5587701215163057 54.89736435400832 1.545440054296506 0 0 0
371 3 4.676312020215945 54.89736435389901 1.5454400542348594 0 0 0
372 3 7.793853918815013 54.89736435389508 1.545440054242998 0 0 0
373 3 10.911395817431034 54.89736435389805 1.5454400542397837 0 0 0
374 3 14.028937716040225 54.89736435390665 1.5454400542429236 0 0 0
375 3 17.146479614649376 54.89736435391372 1.5454400542349327 0 0 0
376 3 20.264021513262847 54.89736435391628 1.5454400542423714 0 0 0
377 3 23.3815634118725 54.89736435390188 1.5454400542504276 0 0 0
378 3 26.49910531048647 54.89736435391787 1.5454400542424922 0 0 0
379 2 3.117541070919314 30.5985309673953 4.6632532791254 0 0 0
558 1 28.057876259798505 55.79732111992364 3.1043466666667348 0 0 0
380 2 6.235082969490552 30.59853096743144 4.663253279086996 0 0 0
557 1 24.940334361195816 55.79732111993142 3.1043466666667396 0 0 0
381 2 9.352624868114777 30.598530967425575 4.663253279095549 0 0 0
556 1 21.822792462567445 55.79732111991931 3.1043466666665003 0 0 0
382 2 12.470166766730744 30.59853096742615 4.663253279091483 0 0 0
555 1 18.705250563965684 55.79732111993557 3.1043466666667 0 0 0
383 2 15.587708665344454 30.598530967429134 4.663253279091821 0 0 0
554 1 15.587708665337576 55.79732111993124 3.1043466666660344 0 0 0
384 2 18.705250563961442 30.59853096742816 4.663253279089669 0 0 0
553 1 12.470166766722652 55.79732111994146 3.104346666667103 0 0 0
385 2 21.822792462573247 30.598530967421187 4.663253279094992 0 0 0
552 1 9.352624868103202 55.79732111997363 3.104346666667262 0 0 0
386 2 24.940334361185432 30.59853096742525 4.663253279092387 0 0 0
551 1 6.2350829694919545 55.797321119957694 3.104346666663705 0 0 0
387 2 28.057876259800473 30.598530967422203 4.6632532790915135 0 0 0
550 1 3.1175410708222246 55.797321119996944 3.104346666664615 0 0 0
388 2 1.5587701215034009 33.29840134378286 4.663253279017562 0 0 0
389 1 1.558770121373136 31.49848773326867 3.104346666667357 0 0 0
390 2 4.676312020213002 33.29840134369838 4.663253279105328 0 0 0
391 1 4.67631202025267 31.49848773342276 3.104346666666006 0 0 0
392 2 7.793853918812842 33.29840134369751 4.663253279101815 0 0 0
393 1 7.793853918811722 31.498487733431194 3.104346666669949 0 0 0
394 2 10.9113958174241 33.298401343696526 4.663253279101734 0 0 0
395 1 10.911395817429769 31.498487733434683 3.104346666665308 0 0 0
396 2 14.028937716038419 33.29840134370255 4.663253279101041 0 0 0
397 1 14.028937716035475 31.498487733421815 3.104346666667108 0 0 0
398 2 17.146479614652538 33.29840134370317 4.663253279101731 0 0 0
399 1 17.146479614646967 31.49848773342183 3.1043466666663635 0 0 0
400 2 20.264021513265213 33.2984013437013 4.663253279100068 0 0 0
401 1 20.264021513246156 31.498487733430412 3.1043466666670163 0 0 0
402 2 23.381563411873632 33.298401343699574 4.663253279100919 0 0 0
403 1 23.381563411874076 31.49848773343248 3.104346666666897 0 0 0
404 2 26.49910531048455 33.29840134370245 4.663253279096825 0 0 0
405 1 26.499105310479365 31.498487733429055 3.1043466666664785 0 0 0
406 1 3.1175410708301623 34.19835810976895 3.1043466666671273 0 0 0
407 2 3.117541070929829 35.9982717199499 4.663253279124604 0 0 0
408 1 6.235082969495502 34.19835810972092 3.1043466666620922 0 0 0
409 2 6.235082969489311 35.99827171997841 4.663253279085948 0 0 0
410 1 9.35262486811389 34.19835810973436 3.1043466666679764 0 0 0
411 2 9.352624868116814 35.998271719970894 4.6632532790908945 0 0 0
412 1 12.470166766730706 34.19835810972923 3.1043466666666806 0 0 0
413 2 12.470166766726315 35.99827171997207 4.663253279092791 0 0 0
414 1 15.587708665337107 34.19835810972309 3.1043466666665402 0 0 0
415 2 15.587708665343348 35.99827171997047 4.6632532790951045 0 0 0
416 1 18.70525056395335 34.19835810971843 3.1043466666665416 0 0 0
417 2 18.70525056396374 35.998271719971136 4.66325327910031 0 0 0
418 1 21.822792462568458 34.19835810971927 3.1043466666664417 0 0 0
419 2 21.82279246257118 35.99827171997527 4.663253279095473 0 0 0
420 1 24.94033436119663 34.19835810971625 3.1043466666665886 0 0 0
421 2 24.94033436118436 35.998271719974575 4.663253279097141 0 0 0
422 1 28.05787625980364 34.19835810972298 3.1043466666668125 0 0 0
423 2 28.05787625979798 35.998271719973246 4.663253279095706 0 0 0
424 2 1.5587701214987604 38.69814209634684 4.663253279012086 0 0 0
425 1 1.5587701213500567 36.89822848585058 3.1043466666636994 0 0 0
426 2 4.676312020214241 38.69814209624539 4.663253279099778 0 0 0
427 1 4.6763120202510775 36.89822848599155 3.1043466666702915 0 0 0
428 2 7.793853918813472 38.69814209625148 4.663253279093539 0 0 0
429 1 7.793853918811789 36.89822848600095 3.104346666669083 0 0 0
430 2 10.911395817424681 38.69814209625824 4.663253279093092 0 0 0
431 1 10.911395817429025 36.89822848598861 3.104346666664765 0 0 0
432 2 14.028937716038207 38.698142096250834 4.663253279092313 0 0 0
433 1 14.0289377160421 36.898228486005465 3.1043466666671953 0 0 0