LAMMPS data file via write_data, version 2 Aug 2023, timestep = 8163, units = metal

27872 atoms
3 atom types

0 935.2593216234759 xlo xhi
0 86.3956968498888 ylo yhi
0 50 zlo zhi
0 0 0 xy xz yz

Masses

1 95.94
2 32.065
3 32.065

Atoms # atomic

1 3 1.558764708318556 0.8999548470682869 1.5454394749826061 0 0 0
2 3 4.676295780397203 0.8999548470678843 1.5454394749832208 0 0 0
3 3 7.793826852476672 0.8999548470660435 1.5454394749818892 0 0 0
4 3 10.911357924557109 0.8999548470701388 1.5454394749827107 0 0 0
5 3 14.028888996635427 0.8999548470675726 1.5454394749812994 0 0 0
6 3 17.146420068715127 0.8999548470689809 1.5454394749816387 0 0 0
7 3 20.263951140790642 0.8999548470681686 1.545439474982492 0 0 0
8 3 23.381482212868217 0.899954847068059 1.5454394749824472 0 0 0
9 3 26.499013284947324 0.8999548470682909 1.5454394749819562 0 0 0
10 3 3.1175302443589508 3.59982037362592 1.5454394749824965 0 0 0
11 3 6.23506131643452 3.5998203736277894 1.5454394749816849 0 0 0
12 3 9.352592388515896 3.5998203736276913 1.5454394749828524 0 0 0
13 3 12.470123460596321 3.5998203736283987 1.5454394749827587 0 0 0
14 3 15.587654532675343 3.599820373627019 1.5454394749809741 0 0 0
15 3 18.705185604753048 3.599820373627529 1.545439474982161 0 0 0
16 3 21.82271667683061 3.5998203736275447 1.5454394749821023 0 0 0
17 3 24.940247748908703 3.5998203736274195 1.5454394749818294 0 0 0
18 3 28.05777882098617 3.5998203736274075 1.5454394749823515 0 0 0
19 3 1.5587647083217493 6.299685900187312 1.5454394749816263 0 0 0
20 3 4.676295780400903 6.299685900186001 1.5454394749825657 0 0 0
21 3 7.793826852477032 6.299685900186408 1.5454394749821505 0 0 0
22 3 10.911357924556714 6.2996859001872005 1.5454394749821259 0 0 0
23 3 14.028888996636157 6.299685900186176 1.54543947498232 0 0 0
24 3 17.146420068715337 6.299685900186649 1.5454394749816514 0 0 0
25 3 20.263951140791377 6.299685900186114 1.5454394749820541 0 0 0
26 3 23.381482212868875 6.299685900187226 1.5454394749821327 0 0 0
27 3 26.49901328494649 6.299685900186738 1.5454394749822902 0 0 0
28 3 3.1175302443614186 8.999551426743967 1.5454394749822933 0 0 0
29 3 6.235061316435027 8.999551426747344 1.5454394749831064 0 0 0
30 3 9.35259238851648 8.999551426745526 1.5454394749818483 0 0 0
31 3 12.47012346059677 8.999551426746693 1.5454394749825553 0 0 0
32 3 15.587654532674412 8.999551426745661 1.545439474982008 0 0 0
33 3 18.705185604753183 8.999551426745523 1.5454394749821045 0 0 0
34 3 21.82271667683192 8.999551426746665 1.545439474981766 0 0 0
35 3 24.940247748909105 8.999551426746091 1.5454394749822484 0 0 0
36 3 28.057778820986204 8.999551426745962 1.5454394749821319 0 0 0
37 3 1.5587647083199556 11.699416953308814 1.54543947498147 0 0 0
38 3 4.676295780395551 11.699416953305173 1.5454394749822342 0 0 0
39 3 7.793826852475586 11.699416953304642 1.5454394749817693 0 0 0
40 3 10.911357924555755 11.69941695330435 1.5454394749818385 0 0 0
41 3 14.028888996635688 11.699416953304935 1.545439474983405 0 0 0
42 3 17.146420068714765 11.699416953304627 1.5454394749815408 0 0 0
43 3 20.263951140792834 11.699416953305121 1.5454394749812328 0 0 0
44 3 23.381482212869138 11.69941695330553 1.545439474983012 0 0 0
45 3 26.499013284946372 11.699416953304882 1.545439474981937 0 0 0
46 3 3.117530244355113 14.39928247986459 1.545439474981469 0 0 0
47 3 6.235061316432068 14.399282479865782 1.5454394749829532 0 0 0
48 3 9.352592388515625 14.399282479862528 1.545439474982515 0 0 0
49 3 12.470123460597243 14.39928247986322 1.5454394749828846 0 0 0
50 3 15.587654532675506 14.399282479863368 1.5454394749819944 0 0 0
51 3 18.7051856047533 14.399282479864251 1.5454394749811973 0 0 0
52 3 21.822716676831206 14.399282479864526 1.5454394749826401 0 0 0
53 3 24.940247748908703 14.399282479864073 1.5454394749829847 0 0 0
54 3 28.057778820986357 14.399282479863803 1.5454394749813323 0 0 0
55 3 1.5587647083197285 17.099148006423754 1.545439474981903 0 0 0
56 3 4.67629578039628 17.099148006422578 1.5454394749807767 0 0 0
57 3 7.79382685247894 17.099148006421302 1.5454394749836011 0 0 0
58 3 10.911357924555027 17.099148006423086 1.5454394749818567 0 0 0
59 3 14.028888996635706 17.09914800642148 1.5454394749815248 0 0 0
60 3 17.146420068715674 17.09914800642341 1.5454394749817941 0 0 0
61 3 20.263951140791427 17.099148006423324 1.5454394749822578 0 0 0
62 3 23.38148221286884 17.09914800642364 1.5454394749831644 0 0 0
63 3 26.49901328494682 17.099148006423228 1.5454394749817248 0 0 0
64 3 3.1175302443572566 19.799013532981835 1.545439474982921 0 0 0
65 3 6.235061316437512 19.799013532982137 1.5454394749820162 0 0 0
66 3 9.352592388515825 19.799013532981746 1.5454394749834273 0 0 0
67 3 12.470123460594472 19.799013532982176 1.5454394749810971 0 0 0
68 3 15.58765453267631 19.7990135329813 1.5454394749812455 0 0 0
69 3 18.705185604753446 19.799013532982165 1.545439474982823 0 0 0
70 3 21.822716676829522 19.799013532982496 1.5454394749826783 0 0 0
71 3 24.940247748909265 19.79901353298253 1.5454394749822362 0 0 0
72 3 28.057778820986506 19.799013532982034 1.545439474981593 0 0 0
73 3 1.5587647083182121 22.49887905954001 1.5454394749827454 0 0 0
74 3 4.676295780398767 22.498879059539338 1.5454394749800915 0 0 0
75 3 7.793826852477062 22.498879059540386 1.545439474982316 0 0 0
76 3 10.911357924555624 22.498879059541416 1.5454394749825506 0 0 0
77 3 14.028888996635818 22.49887905954106 1.5454394749817026 0 0 0
78 3 17.14642006871644 22.498879059541483 1.5454394749821776 0 0 0
79 3 20.263951140791605 22.498879059540613 1.5454394749826377 0 0 0
80 3 23.381482212868338 22.49887905954153 1.5454394749821176 0 0 0
81 3 26.499013284947083 22.49887905954121 1.5454394749816274 0 0 0
82 3 3.117530244356118 25.198744586099668 1.5454394749826788 0 0 0
83 3 6.2350613164347575 25.19874458609959 1.5454394749829405 0 0 0
84 3 9.352592388515985 25.19874458610012 1.545439474982138 0 0 0
85 3 12.470123460595666 25.198744586101 1.5454394749825417 0 0 0
86 3 15.587654532675511 25.19874458610013 1.5454394749814238 0 0 0
87 3 18.705185604753503 25.198744586100144 1.545439474982128 0 0 0
88 3 21.82271667683005 25.198744586099657 1.5454394749822393 0 0 0
89 3 24.94024774890919 25.19874458610044 1.5454394749819185 0 0 0
90 3 28.057778820986655 25.198744586099945 1.5454394749819476 0 0 0
91 3 1.558764708317171 27.89861011265892 1.545439474980126 0 0 0
92 3 4.676295780396914 27.898610112657522 1.545439474982969 0 0 0
93 3 7.793826852475833 27.898610112660155 1.545439474982897 0 0 0
94 3 10.911357924555 27.898610112658744 1.5454394749818448 0 0 0
95 3 14.028888996634144 27.89861011265955 1.545439474982922 0 0 0
96 3 17.146420068716374 27.89861011265973 1.5454394749817064 0 0 0
97 3 20.263951140792287 27.89861011265851 1.545439474981953 0 0 0
98 3 23.381482212868452 27.898610112659043 1.5454394749819207 0 0 0
99 3 26.499013284947154 27.898610112659195 1.5454394749817628 0 0 0
100 2 1.5587647083167124 0.8999548470717655 4.663253858351341 0 0 0
101 2 4.6762957803973535 0.8999548470685864 4.663253858350584 0 0 0
102 1 3.1175302443582855 1.7999110907131393 3.104346666666946 0 0 0
103 2 7.793826852474605 0.8999548470667934 4.66325385835112 0 0 0
104 1 6.235061316437116 1.7999110907129605 3.1043466666658803 0 0 0
105 1 9.352592388515415 1.7999110907123865 3.1043466666673143 0 0 0
106 2 10.911357924557064 0.8999548470701016 4.663253858351583 0 0 0
107 1 12.470123460597117 1.7999110907137168 3.1043466666669692 0 0 0
108 2 14.028888996636587 0.8999548470675135 4.663253858350961 0 0 0
109 1 15.587654532675005 1.7999110907125957 3.1043466666658937 0 0 0
110 2 17.146420068714253 0.8999548470695141 4.663253858351212 0 0 0
111 2 20.26395114079063 0.8999548470682528 4.663253858351726 0 0 0
112 1 18.705185604752995 1.7999110907138167 3.104346666666782 0 0 0
113 2 23.381482212868928 0.8999548470682398 4.66325385835103 0 0 0
114 1 21.82271667682964 1.7999110907134561 3.104346666666972 0 0 0
115 2 26.49901328494686 0.8999548470681986 4.663253858351433 0 0 0
116 1 24.940247748908167 1.7999110907128129 3.10434666666652 0 0 0
117 1 28.057778820986055 1.7999110907132174 3.10434666666695 0 0 0
118 1 1.5587647083164862 4.499776617270385 3.1043466666658217 0 0 0
119 1 4.676295780396066 4.499776617272403 3.104346666666319 0 0 0
120 2 3.1175302443578663 3.599820373626452 4.6632538583510845 0 0 0
121 1 7.79382685247483 4.499776617271483 3.1043466666665633 0 0 0
122 2 6.23506131643386 3.599820373627435 4.663253858350474 0 0 0
123 2 9.352592388514488 3.599820373627646 4.663253858351441 0 0 0
124 1 10.911357924556036 4.499776617272921 3.1043466666675696 0 0 0
125 2 12.470123460597224 3.599820373628418 4.663253858351782 0 0 0
126 1 14.028888996636624 4.499776617271708 3.104346666666612 0 0 0
127 2 15.587654532675389 3.5998203736264753 4.663253858351139 0 0 0
128 1 17.146420068713788 4.499776617272155 3.10434666666626 0 0 0
129 1 20.26395114079164 4.499776617272206 3.104346666666889 0 0 0
130 2 18.705185604752526 3.599820373627743 4.663253858351237 0 0 0
131 1 23.381482212869564 4.499776617272474 3.1043466666667108 0 0 0
132 2 21.822716676830872 3.599820373627681 4.663253858351608 0 0 0
133 1 26.49901328494749 4.499776617272479 3.1043466666668773 0 0 0
134 2 24.940247748908593 3.599820373627197 4.663253858351343 0 0 0
135 2 28.057778820986094 3.5998203736274554 4.6632538583517285 0 0 0
136 2 1.558764708320207 6.299685900185562 4.663253858352964 0 0 0
137 2 4.67629578040033 6.2996859001848895 4.663253858351458 0 0 0
138 1 3.1175302443603994 7.199642143829413 3.1043466666671073 0 0 0
139 2 7.793826852476954 6.299685900186258 4.663253858350736 0 0 0
140 1 6.235061316437919 7.199642143831669 3.1043466666669666 0 0 0
141 1 9.352592388516731 7.199642143831118 3.1043466666666113 0 0 0
142 2 10.911357924556656 6.299685900188367 4.663253858351904 0 0 0
143 1 12.470123460596358 7.199642143831632 3.104346666666565 0 0 0
144 2 14.02888899663597 6.299685900185939 4.663253858351057 0 0 0
145 1 15.587654532675982 7.199642143831027 3.1043466666669994 0 0 0
146 2 17.14642006871544 6.299685900185986 4.663253858351596 0 0 0
147 2 20.263951140791878 6.299685900186609 4.6632538583512435 0 0 0
148 1 18.70518560475358 7.199642143831265 3.1043466666665904 0 0 0
149 2 23.381482212868637 6.299685900187162 4.663253858351261 0 0 0
150 1 21.82271667683024 7.199642143832163 3.104346666666511 0 0 0
151 2 26.499013284946333 6.299685900186871 4.663253858351533 0 0 0
152 1 24.940247748907936 7.199642143831824 3.1043466666668693 0 0 0
153 1 28.05777882098602 7.199642143831606 3.104346666666986 0 0 0
154 1 1.5587647083190992 9.89950767039112 3.104346666664592 0 0 0
155 1 4.676295780396386 9.899507670391532 3.104346666666569 0 0 0
156 2 3.1175302443576283 8.999551426745246 4.6632538583500684 0 0 0
157 1 7.793826852476291 9.89950767039006 3.1043466666668067 0 0 0
158 2 6.235061316435542 8.999551426747008 4.663253858350762 0 0 0
159 2 9.352592388515887 8.999551426745306 4.663253858351178 0 0 0
160 1 10.911357924555942 9.899507670390145 3.1043466666666393 0 0 0
161 2 12.470123460595854 8.999551426746281 4.663253858351343 0 0 0
162 1 14.028888996635931 9.899507670390278 3.1043466666674 0 0 0
163 2 15.587654532674652 8.99955142674527 4.663253858352243 0 0 0
164 1 17.14642006871387 9.89950767039031 3.104346666666865 0 0 0
165 1 20.26395114079234 9.89950767039084 3.1043466666660584 0 0 0
166 2 18.70518560475367 8.999551426745622 4.6632538583508945 0 0 0
167 1 23.381482212870374 9.899507670390895 3.1043466666670754 0 0 0
168 2 21.8227166768311 8.99955142674654 4.663253858351309 0 0 0
169 1 26.499013284947626 9.89950767039089 3.1043466666668773 0 0 0
170 2 24.94024774890914 8.99955142674594 4.663253858351752 0 0 0
171 2 28.05777882098626 8.999551426746102 4.6632538583514 0 0 0
172 2 1.5587647083192058 11.699416953304603 4.66325385835013 0 0 0
173 2 4.676295780395943 11.69941695330521 4.6632538583516 0 0 0
174 1 3.1175302443575856 12.599373196950824 3.1043466666670976 0 0 0
175 2 7.793826852475502 11.699416953305409 4.66325385834999 0 0 0
176 1 6.235061316435047 12.599373196949637 3.1043466666659683 0 0 0
177 1 9.352592388516001 12.599373196947969 3.104346666666426 0 0 0
178 2 10.911357924554444 11.699416953303963 4.6632538583519185 0 0 0
179 1 12.470123460594985 12.599373196948662 3.1043466666672317 0 0 0
180 2 14.028888996635802 11.699416953304627 4.663253858351912 0 0 0
181 1 15.58765453267618 12.599373196949223 3.1043466666675066 0 0 0
182 2 17.146420068716925 11.699416953304887 4.663253858351415 0 0 0
183 2 20.263951140791093 11.699416953304736 4.663253858351018 0 0 0
184 1 18.70518560475399 12.59937319694973 3.1043466666654993 0 0 0
185 2 23.38148221286905 11.699416953305153 4.6632538583519585 0 0 0
186 1 21.822716676830385 12.59937319695027 3.1043466666673254 0 0 0
187 2 26.499013284947363 11.699416953304805 4.663253858351641 0 0 0
188 1 24.94024774890847 12.599373196949756 3.1043466666675172 0 0 0
189 1 28.05777882098587 12.59937319694955 3.104346666666075 0 0 0
190 1 1.558764708313574 15.299238723507782 3.104346666665745 0 0 0
191 1 4.676295780392818 15.299238723510145 3.1043466666658364 0 0 0
192 2 3.117530244353613 14.399282479866343 4.663253858350101 0 0 0
193 1 7.793826852475283 15.299238723506466 3.1043466666671704 0 0 0
194 2 6.235061316431628 14.399282479864615 4.663253858349823 0 0 0
195 2 9.352592388515873 14.399282479861684 4.663253858350832 0 0 0
196 1 10.911357924556235 15.299238723508193 3.104346666666838 0 0 0
197 2 12.470123460596302 14.399282479863563 4.663253858351678 0 0 0
198 1 14.028888996636567 15.299238723507768 3.1043466666671162 0 0 0
199 2 15.587654532676261 14.399282479863933 4.663253858352142 0 0 0
200 1 17.146420068714846 15.299238723508871 3.104346666666424 0 0 0
201 1 20.2639511407915 15.299238723509053 3.1043466666663235 0 0 0
202 2 18.705185604753417 14.399282479863416 4.66325385835031 0 0 0
203 1 23.38148221286968 15.299238723508967 3.1043466666681026 0 0 0
204 2 21.822716676829558 14.399282479864686 4.663253858352144 0 0 0
205 1 26.499013284948283 15.299238723509248 3.1043466666665878 0 0 0
206 2 24.940247748910256 14.3992824798643 4.663253858352054 0 0 0
207 2 28.05777882098666 14.399282479863535 4.663253858350844 0 0 0
208 2 1.5587647083195786 17.099148006423512 4.663253858350053 0 0 0
209 2 4.676295780396055 17.099148006422414 4.6632538583509975 0 0 0
210 1 3.1175302443593784 17.99910425006776 3.1043466666660424 0 0 0
211 2 7.793826852477136 17.099148006421363 4.663253858350972 0 0 0
212 1 6.235061316437083 17.999104250066438 3.10434666666625 0 0 0
213 1 9.352592388517444 17.99910425006732 3.1043466666679684 0 0 0
214 2 10.911357924556887 17.099148006423064 4.663253858351959 0 0 0
215 1 12.47012346059554 17.99910425006716 3.1043466666655624 0 0 0
216 2 14.028888996635146 17.09914800642288 4.663253858350764 0 0 0
217 1 15.58765453267544 17.99910425006681 3.1043466666662867 0 0 0
218 2 17.146420068715184 17.09914800642322 4.663253858351414 0 0 0
219 2 20.263951140791352 17.09914800642237 4.663253858351709 0 0 0
220 1 18.705185604753463 17.999104250068353 3.1043466666671495 0 0 0
221 2 23.3814822128693 17.099148006424464 4.663253858352268 0 0 0
222 1 21.822716676829717 17.999104250068257 3.104346666667422 0 0 0
223 2 26.499013284947903 17.099148006423338 4.663253858351447 0 0 0
224 1 24.940247748908572 17.999104250068264 3.1043466666671584 0 0 0
225 1 28.05777882098617 17.999104250067766 3.1043466666661135 0 0 0
226 1 1.5587647083159188 20.698969776625038 3.1043466666681696 0 0 0
227 1 4.676295780397486 20.698969776627187 3.1043466666653465 0 0 0
228 2 3.1175302443597293 19.799013532980574 4.6632538583500205 0 0 0
229 1 7.793826852476351 20.698969776626065 3.104346666667155 0 0 0
230 2 6.235061316435711 19.79901353298225 4.663253858350465 0 0 0
231 2 9.352592388515808 19.799013532982187 4.663253858352374 0 0 0
232 1 10.911357924555904 20.698969776627056 3.1043466666675914 0 0 0
233 2 12.470123460596252 19.799013532981533 4.66325385835063 0 0 0
234 1 14.028888996635839 20.698969776625372 3.1043466666652346 0 0 0
235 2 15.587654532674824 19.799013532981448 4.663253858350808 0 0 0
236 1 17.146420068714843 20.698969776627123 3.1043466666671096 0 0 0
237 1 20.263951140791246 20.698969776627106 3.1043466666675474 0 0 0
238 2 18.705185604753243 19.799013532982016 4.663253858352157 0 0 0
239 1 23.381482212869177 20.698969776626843 3.104346666666889 0 0 0
240 2 21.822716676830012 19.799013532982713 4.663253858351978 0 0 0
241 1 26.499013284948358 20.69896977662724 3.1043466666664337 0 0 0
242 2 24.940247748909606 19.79901353298291 4.6632538583514345 0 0 0
243 2 28.05777882098647 19.799013532981586 4.663253858351156 0 0 0
244 2 1.558764708320281 22.498879059540855 4.66325385835138 0 0 0
245 2 4.676295780397901 22.49887905953947 4.663253858351229 0 0 0
246 1 3.1175302443592754 23.39883530318399 3.1043466666665163 0 0 0
247 2 7.793826852475664 22.498879059540585 4.663253858351364 0 0 0
248 1 6.23506131643647 23.3988353031838 3.1043466666661 0 0 0
249 1 9.352592388515845 23.398835303185695 3.1043466666673214 0 0 0
250 2 10.911357924555942 22.498879059542105 4.6632538583520295 0 0 0
251 1 12.47012346059593 23.39883530318579 3.1043466666667663 0 0 0
252 2 14.028888996636475 22.49887905953964 4.6632538583504495 0 0 0
253 1 15.587654532676021 23.398835303185407 3.104346666666438 0 0 0
254 2 17.146420068715724 22.49887905954191 4.663253858351724 0 0 0
255 2 20.263951140791576 22.498879059541117 4.663253858352206 0 0 0
256 1 18.705185604753858 23.398835303186463 3.1043466666672126 0 0 0
257 2 23.381482212868853 22.498879059541448 4.663253858351337 0 0 0
258 1 21.82271667682986 23.3988353031856 3.1043466666671122 0 0 0
259 2 26.499013284946933 22.498879059541057 4.663253858351318 0 0 0
260 1 24.940247748908277 23.398835303185667 3.1043466666663666 0 0 0
261 1 28.057778820986318 23.398835303185596 3.1043466666666424 0 0 0
262 1 1.5587647083190481 26.09870082974682 3.104346666668748 0 0 0
263 1 4.67629578039584 26.098700829743752 3.104346666666656 0 0 0
264 2 3.1175302443572828 25.198744586098407 4.663253858350769 0 0 0
265 1 7.793826852475541 26.09870082974423 3.1043466666668613 0 0 0
266 2 6.23506131643452 25.198744586098712 4.66325385835059 0 0 0
267 2 9.352592388515458 25.198744586100645 4.663253858351649 0 0 0
268 1 10.911357924555356 26.098700829744985 3.104346666667044 0 0 0
269 2 12.470123460595891 25.198744586100958 4.663253858351472 0 0 0
270 1 14.02888899663612 26.098700829744534 3.1043466666668844 0 0 0
271 2 15.587654532676037 25.198744586099764 4.663253858351553 0 0 0
272 1 17.146420068714804 26.09870082974519 3.104346666666522 0 0 0
273 1 20.263951140791818 26.09870082974493 3.1043466666669253 0 0 0
274 2 18.70518560475308 25.19874458610067 4.663253858351622 0 0 0
275 1 23.381482212869013 26.098700829744423 3.1043466666666335 0 0 0
276 2 21.82271667683038 25.198744586100023 4.663253858351675 0 0 0
277 1 26.499013284947942 26.098700829745095 3.104346666666533 0 0 0
278 2 24.940247748909215 25.19874458610019 4.663253858350817 0 0 0
279 2 28.05777882098617 25.19874458609971 4.663253858351498 0 0 0
280 2 1.5587647083167173 27.898610112660275 4.663253858352053 0 0 0
281 2 4.676295780395205 27.89861011265777 4.663253858351742 0 0 0
283 2 7.793826852475778 27.898610112659384 4.663253858351006 0 0 0
286 2 10.911357924554318 27.898610112659114 4.663253858352147 0 0 0
288 2 14.028888996634942 27.898610112659483 4.663253858351182 0 0 0
287 2 17.146420068716267 27.898610112659398 4.663253858351475 0 0 0
285 2 20.263951140792365 27.89861011265884 4.663253858351777 0 0 0
284 2 23.381482212868615 27.898610112659114 4.663253858351174 0 0 0
282 2 26.499013284946823 27.898610112659114 4.663253858351356 0 0 0
289 3 3.1175302443543704 30.59847563921933 1.5454394749831182 0 0 0
290 3 6.235061316432905 30.598475639218872 1.5454394749840528 0 0 0
291 3 9.352592388516081 30.5984756392168 1.5454394749812166 0 0 0
292 3 12.470123460595705 30.598475639218186 1.545439474983232 0 0 0
293 3 15.587654532676018 30.598475639218254 1.545439474981809 0 0 0
294 3 18.705185604753773 30.59847563921787 1.5454394749820652 0 0 0
295 3 21.82271667683024 30.59847563921824 1.5454394749818683 0 0 0
296 3 24.940247748908927 30.598475639218186 1.545439474981992 0 0 0
297 3 28.057778820986506 30.59847563921765 1.545439474982038 0 0 0
298 3 1.5587647083171068 33.29834116577753 1.5454394749851736 0 0 0
299 3 4.676295780396616 33.29834116577627 1.5454394749814389 0 0 0
300 3 7.793826852477712 33.298341165775554 1.5454394749817373 0 0 0
301 3 10.91135792455587 33.29834116577607 1.5454394749824953 0 0 0
302 3 14.02888899663579 33.298341165777394 1.5454394749826383 0 0 0
303 3 17.14642006871641 33.298341165777366 1.545439474981553 0 0 0
304 3 20.263951140791654 33.2983411657772 1.545439474981959 0 0 0
305 3 23.381482212868335 33.29834116577719 1.5454394749824776 0 0 0
306 3 26.49901328494686 33.2983411657766 1.5454394749819422 0 0 0
307 3 3.1175302443560593 35.99820669233642 1.5454394749834626 0 0 0
308 3 6.235061316435719 35.99820669233646 1.5454394749824363 0 0 0
309 3 9.352592388516413 35.99820669233504 1.5454394749829539 0 0 0
310 3 12.470123460596659 35.99820669233695 1.545439474982669 0 0 0
311 3 15.587654532676716 35.998206692335664 1.5454394749812128 0 0 0
312 3 18.70518560475412 35.99820669233635 1.5454394749818967 0 0 0
313 3 21.822716676829938 35.99820669233662 1.5454394749823623 0 0 0
314 3 24.940247748908657 35.99820669233559 1.5454394749823577 0 0 0
315 3 28.057778820986396 35.998206692335856 1.5454394749817049 0 0 0
316 3 1.5587647083195355 38.69807221889299 1.5454394749834643 0 0 0
317 3 4.67629578039672 38.69807221889586 1.5454394749811058 0 0 0
318 3 7.793826852477258 38.698072218893365 1.5454394749827185 0 0 0
319 3 10.911357924556018 38.69807221889626 1.5454394749815292 0 0 0
320 3 14.028888996636999 38.698072218895234 1.5454394749827747 0 0 0
321 3 17.146420068717454 38.69807221889572 1.5454394749816347 0 0 0
322 3 20.26395114079154 38.698072218895554 1.5454394749819125 0 0 0
323 3 23.38148221286819 38.69807221889557 1.5454394749825202 0 0 0
324 3 26.499013284946894 38.698072218894524 1.545439474981731 0 0 0
325 3 3.117530244358205 41.39793774545364 1.545439474984761 0 0 0
326 3 6.235061316435384 41.39793774545558 1.5454394749827862 0 0 0
327 3 9.352592388515603 41.39793774545411 1.5454394749825378 0 0 0
328 3 12.470123460596515 41.39793774545487 1.5454394749824067 0 0 0
329 3 15.587654532675499 41.3979377454542 1.5454394749816855 0 0 0
330 3 18.705185604752977 41.39793774545425 1.5454394749821239 0 0 0
331 3 21.82271667682938 41.39793774545502 1.545439474981874 0 0 0
332 3 24.940247748909172 41.397937745453426 1.5454394749821572 0 0 0
333 3 28.057778820986695 41.39793774545366 1.5454394749819351 0 0 0
334 3 1.558764708316654 44.09780327201187 1.5454394749826867 0 0 0
335 3 4.676295780396911 44.0978032720136 1.5454394749821498 0 0 0
336 3 7.793826852476532 44.097803272013216 1.5454394749834612 0 0 0
337 3 10.911357924555496 44.097803272015 1.5454394749820515 0 0 0
338 3 14.028888996636496 44.09780327201297 1.5454394749825506 0 0 0
339 3 17.14642006871696 44.09780327201343 1.545439474981796 0 0 0
340 3 20.263951140791164 44.0978032720136 1.5454394749816793 0 0 0
341 3 23.381482212867766 44.09780327201358 1.5454394749820373 0 0 0
342 3 26.499013284947114 44.09780327201212 1.5454394749822327 0 0 0
343 3 3.117530244356361 46.797668798571515 1.5454394749823601 0 0 0
344 3 6.235061316435139 46.79766879857296 1.5454394749830433 0 0 0
345 3 9.35259238851612 46.797668798572175 1.545439474982494 0 0 0
346 3 12.47012346059634 46.79766879857323 1.5454394749826674 0 0 0
347 3 15.587654532676206 46.79766879857222 1.5454394749819018 0 0 0
348 3 18.705185604753407 46.79766879857179 1.5454394749824785 0 0 0
349 3 21.82271667682892 46.7976687985729 1.5454394749817182 0 0 0
350 3 24.94024774890899 46.79766879857127 1.5454394749823992 0 0 0
351 3 28.057778820987107 46.797668798571145 1.5454394749822273 0 0 0
352 3 1.5587647083169094 49.497534325132186 1.5454394749830906 0 0 0
353 3 4.676295780396782 49.49753432513045 1.5454394749817808 0 0 0
354 3 7.793826852475616 49.49753432513032 1.5454394749818297 0 0 0
355 3 10.911357924556093 49.497534325132186 1.5454394749817155 0 0 0
356 3 14.028888996635857 49.49753432513213 1.5454394749827933 0 0 0
357 3 17.146420068715585 49.49753432513205 1.5454394749820746 0 0 0
358 3 20.26395114079068 49.49753432513106 1.5454394749819709 0 0 0
359 3 23.381482212868082 49.49753432513147 1.5454394749822555 0 0 0
360 3 26.499013284947534 49.49753432513074 1.5454394749819582 0 0 0
361 3 3.1175302443599637 52.19739985169031 1.5454394749832383 0 0 0
362 3 6.235061316434437 52.19739985169053 1.5454394749831162 0 0 0
363 3 9.352592388516248 52.19739985169091 1.5454394749814417 0 0 0
364 3 12.470123460597915 52.197399851691266 1.5454394749829405 0 0 0
365 3 15.587654532675794 52.19739985169075 1.5454394749816396 0 0 0
366 3 18.70518560475185 52.1973998516897 1.5454394749822986 0 0 0
367 3 21.82271667682891 52.19739985169046 1.5454394749819012 0 0 0
368 3 24.940247748909627 52.19739985169002 1.545439474982228 0 0 0
369 3 28.057778820986695 52.19739985168954 1.545439474981852 0 0 0
370 3 1.558764708321432 54.897265378249514 1.5454394749826112 0 0 0
371 3 4.6762957803947085 54.897265378247255 1.5454394749814855 0 0 0
372 3 7.793826852476341 54.89726537824891 1.5454394749807925 0 0 0
373 3 10.911357924556741 54.89726537825059 1.5454394749827822 0 0 0
374 3 14.028888996638235 54.89726537824919 1.5454394749824978 0 0 0
375 3 17.146420068715567 54.897265378249436 1.54543947498221 0 0 0
376 3 20.263951140789594 54.897265378248704 1.5454394749816973 0 0 0
377 3 23.381482212867777 54.89726537824946 1.5454394749819202 0 0 0
378 3 26.499013284947864 54.89726537824916 1.5454394749820812 0 0 0
568 3 3.1175302443573005 57.59713090480596 1.5454394749825389 0 0 0
569 3 6.235061316436742 57.597130904808495 1.5454394749808726 0 0 0
570 3 9.352592388516673 57.59713090480844 1.545439474982277 0 0 0
571 3 12.470123460597632 57.59713090480838 1.5454394749833154 0 0 0
572 3 15.58765453267581 57.59713090480841 1.545439474981776 0 0 0
573 3 18.705185604751506 57.59713090480787 1.5454394749825981 0 0 0
574 3 21.82271667682892 57.5971309048086 1.5454394749816152 0 0 0
575 3 24.940247748909023 57.59713090480874 1.5454394749818219 0 0 0
576 3 28.05777882098658 57.59713090480754 1.545439474982082 0 0 0
379 2 3.11753024435601 30.598475639217583 4.663253858351894 0 0 0
559 1 3.117530244355841 28.79856635630344 3.10434666666635 0 0 0
380 2 6.235061316434498 30.5984756392195 4.6632538583498135 0 0 0
562 1 6.235061316435111 28.798566356303272 3.1043466666674933 0 0 0
381 2 9.352592388515072 30.598475639216883 4.66325385835168 0 0 0
564 1 9.352592388515896 28.798566356303475 3.104346666666729 0 0 0
382 2 12.470123460595877 30.59847563921838 4.663253858351236 0 0 0
566 1 12.470123460594074 28.798566356303304 3.1043466666671597 0 0 0
383 2 15.587654532676167 30.598475639218062 4.6632538583517285 0 0 0
567 1 15.587654532675899 28.798566356303525 3.1043466666667583 0 0 0
384 2 18.705185604753872 30.598475639218393 4.663253858351424 0 0 0
565 1 18.705185604754533 28.798566356304306 3.104346666666846 0 0 0
385 2 21.8227166768302 30.598475639217924 4.663253858351339 0 0 0
563 1 21.822716676830126 28.79856635630396 3.1043466666666513 0 0 0
386 2 24.94024774890897 30.59847563921801 4.663253858351166 0 0 0
561 1 24.94024774890798 28.79856635630345 3.1043466666664776 0 0 0
387 2 28.05777882098654 30.59847563921779 4.66325385835164 0 0 0
560 1 28.057778820986353 28.798566356303688 3.1043466666667774 0 0 0
388 2 1.5587647083177614 33.298341165777984 4.6632538583513305 0 0 0
389 1 1.5587647083138638 31.49843188286137 3.1043466666688038 0 0 0
390 2 4.676295780397704 33.2983411657771 4.663253858352654 0 0 0
391 1 4.676295780393811 31.498431882863976 3.1043466666670048 0 0 0
392 2 7.793826852476159 33.29834116577492 4.663253858350738 0 0 0
393 1 7.793826852476491 31.49843188286105 3.1043466666661046 0 0 0
394 2 10.911357924555645 33.29834116577633 4.663253858351969 0 0 0
395 1 10.911357924554913 31.49843188286183 3.104346666667097 0 0 0
396 2 14.028888996636255 33.29834116577744 4.6632538583511 0 0 0
397 1 14.028888996636418 31.49843188286243 3.1043466666670256 0 0 0
398 2 17.146420068716495 33.29834116577772 4.663253858351563 0 0 0
399 1 17.146420068715166 31.498431882863116 3.1043466666666975 0 0 0
400 2 20.263951140791377 33.29834116577686 4.6632538583515695 0 0 0
401 1 20.263951140791967 31.49843188286305 3.1043466666665553 0 0 0
402 2 23.381482212868516 33.29834116577675 4.663253858351576 0 0 0
403 1 23.381482212869322 31.498431882862356 3.104346666666711 0 0 0
404 2 26.49901328494701 33.29834116577682 4.663253858351721 0 0 0
405 1 26.499013284947868 31.498431882862963 3.104346666666827 0 0 0
406 1 3.117530244358669 34.198297409422175 3.104346666667587 0 0 0
407 2 3.117530244358336 35.99820669233624 4.663253858351535 0 0 0
408 1 6.235061316436739 34.198297409420455 3.1043466666659265 0 0 0
409 2 6.235061316435996 35.998206692335444 4.663253858350473 0 0 0
410 1 9.352592388516282 34.198297409420405 3.1043466666671256 0 0 0
411 2 9.352592388516811 35.998206692335096 4.663253858351282 0 0 0
412 1 12.470123460595426 34.19829740942178 3.1043466666672295 0 0 0
413 2 12.470123460597183 35.99820669233742 4.663253858351022 0 0 0
414 1 15.587654532676853 34.19829740942178 3.104346666666557 0 0 0
415 2 15.58765453267692 35.99820669233591 4.66325385835171 0 0 0
416 1 18.705185604754195 34.19829740942242 3.1043466666665647 0 0 0
417 2 18.705185604753492 35.99820669233605 4.663253858351284 0 0 0
418 1 21.822716676829746 34.19829740942228 3.1043466666670994 0 0 0
419 2 21.822716676829568 35.99820669233695 4.663253858351736 0 0 0
420 1 24.940247748907904 34.19829740942157 3.104346666666997 0 0 0
421 2 24.94024774890893 35.99820669233565 4.663253858351594 0 0 0
422 1 28.05777882098583 34.19829740942139 3.104346666666636 0 0 0
423 2 28.057778820986428 35.99820669233566 4.663253858351478 0 0 0
424 2 1.5587647083198737 38.698072218894296 4.663253858352374 0 0 0