LAMMPS data file via write_data, version 21 Nov 2023, timestep = 723, units = metal

37181 atoms
3 atom types

0 1247.012833620066 xlo xhi
0 86.39558427771694 ylo yhi
0 50 zlo zhi
0 0 0 xy xz yz

Masses

1 95.94
2 32.065
3 32.065

Atoms # atomic

37181 3 1.558778829883864 0.8999366792824262 1.5454386747553044 0 0 0
27140 3 4.676326203690213 0.8999431458053898 1.5454607941407124 0 0 0
27139 3 7.793866358395485 0.8999548654622656 1.5454972993492724 0 0 0
27138 3 10.911392742294064 0.8999275574158898 1.5455495747842283 0 0 0
27137 3 14.028884730479277 0.8999383492049465 1.5455578176407399 0 0 0
27136 3 17.146443206241347 0.8999674398546444 1.5455414274291892 0 0 0
27135 3 20.263941678166695 0.8999622204934894 1.5453978222512352 0 0 0
27134 3 23.381447746168043 0.8999678833058707 1.5455007485877779 0 0 0
27133 3 26.49901895060769 0.8999677478755512 1.545471691161657 0 0 0
27132 3 29.616581874752598 0.8999818559219729 1.5454829706224376 0 0 0
27131 3 32.73414003389902 0.8999905486728226 1.5455294069599201 0 0 0
27130 3 35.85163594772817 0.8999978943505151 1.545440864700449 0 0 0
8826 1 31.17533723565572 28.798519699456257 3.1044375780034805 0 0 0
27141 3 3.1175585398132095 3.5998186383037947 1.5454389221082188 0 0 0
27129 3 6.235104491237116 3.599823497369765 1.5454809567844379 0 0 0
27127 3 9.352649514792976 3.59984079831724 1.5455476807146704 0 0 0
27126 3 12.470117832999621 3.599850193908543 1.5455751248399983 0 0 0
27125 3 15.587640185474928 3.599820309543466 1.5455445854326044 0 0 0
27124 3 18.705179993366873 3.599796795808882 1.5455413880116498 0 0 0
27123 3 21.822699944017824 3.599790695442525 1.5455170879948745 0 0 0
27122 3 24.940258496496845 3.5998288434325802 1.545483385584238 0 0 0
27121 3 28.05781210894451 3.5998396463567466 1.5454954469752653 0 0 0
27120 3 31.175367215428587 3.5998628921951923 1.5455426074982088 0 0 0
27119 3 34.292867084010844 3.599831395945237 1.545595159700445 0 0 0
27118 3 37.41040748262849 3.5998005560404116 1.5456180407962945 0 0 0
27117 3 1.558787574509775 6.299693621671593 1.5454303817414157 0 0 0
27128 3 4.676341279232094 6.299699300260683 1.545466948245043 0 0 0
27143 3 7.793893498402777 6.299695031494341 1.5455359767113739 0 0 0
27156 3 10.911377655091162 6.299692499214761 1.5454596321846046 0 0 0
27144 3 14.028869458355356 6.299712047373785 1.5456103565446613 0 0 0
27168 3 17.146377647600744 6.299695254914965 1.5455606551261212 0 0 0
27167 3 20.263936052636176 6.299675028064624 1.5455120192585725 0 0 0
27166 3 23.381488648388448 6.299679635001734 1.545495260969743 0 0 0
27165 3 26.49905269625249 6.2997031492168 1.5455051248271503 0 0 0
27164 3 29.616606690582927 6.299705568088361 1.5455512420460884 0 0 0
27163 3 32.73409612594873 6.299689637785926 1.5454561512718115 0 0 0
27162 3 35.85158393810662 6.2996742964173 1.5455845126412289 0 0 0
22703 2 14.028888672049172 27.898571356952672 4.663223968174173 0 0 0
27161 3 3.117558066786599 8.999571095374568 1.5454683705982786 0 0 0
27160 3 6.2351123852671515 8.99957930906249 1.545526409119465 0 0 0
27159 3 9.352609119979507 8.999536755640655 1.5455874513730095 0 0 0
27158 3 12.470140188543624 8.999502636342816 1.545611113798054 0 0 0
27169 3 15.587640629290131 8.999525993554284 1.5454399595263346 0 0 0
27157 3 18.705143307993044 8.999535954187767 1.5455361979153805 0 0 0
27155 3 21.822716284858053 8.999539616787205 1.545499122380733 0 0 0
27154 3 24.940280032885042 8.99955301753949 1.5455094471291475 0 0 0
27153 3 28.057837730731823 8.999583944389679 1.5455609177986849 0 0 0
27152 3 31.17531560335286 8.999546145759146 1.5456003053409746 0 0 0
27151 3 34.29282549369069 8.999509407396614 1.545575964570906 0 0 0
27150 3 37.4103739037261 8.999516790740804 1.5455288692853153 0 0 0
27149 3 1.5587766646494634 11.699451676146989 1.5454962601350233 0 0 0
27148 3 4.6763356810893315 11.699437966253575 1.5455343464868303 0 0 0
27147 3 7.793835828210101 11.699400660340075 1.5454336006639962 0 0 0
27146 3 10.91132137858112 11.699386474793792 1.5455655588964363 0 0 0
27145 3 14.028878851408898 11.699337285982747 1.5455545908312613 0 0 0
27116 3 17.146401478969555 11.699354243871642 1.5455299022166118 0 0 0
27115 3 20.263955617060436 11.699392457324038 1.5454917984576917 0 0 0
27114 3 23.38151487900351 11.699403956902595 1.5454982681620977 0 0 0
27100 3 26.49908818739256 11.699417764041398 1.5455550924149146 0 0 0
27084 3 29.616585570133754 11.699412022955796 1.5454731525498633 0 0 0
27083 3 32.73405209077144 11.699415563930744 1.5455784534849737 0 0 0
27082 3 35.851591921958914 11.699395775008288 1.545528705267667 0 0 0
8819 1 9.352579561118533 28.798522371053945 3.1043398956499857 0 0 0
27081 3 3.1175179283057366 14.399323847573253 1.5455541855398767 0 0 0
27080 3 6.235057578948478 14.39925362859345 1.5455666629687366 0 0 0
27079 3 9.352558692229355 14.399230263394033 1.5455535469635813 0 0 0
27078 3 12.47011083387102 14.399231134016233 1.5455095787423363 0 0 0
27077 3 15.587649697354 14.399232994572978 1.5454933149702634 0 0 0
27076 3 18.705192993346632 14.399250139028553 1.5454832160289527 0 0 0
27075 3 21.822736951839133 14.399261702741262 1.5454837857606822 0 0 0
27074 3 24.94028684637453 14.39926696306253 1.5455069265136392 0 0 0
27073 3 28.057861596809747 14.399229373644646 1.5455886013731155 0 0 0
27072 3 31.17532467722729 14.399242524666844 1.5454738426522197 0 0 0
27071 3 34.29281466232123 14.399282340966417 1.5455674704804405 0 0 0
27070 3 37.41036515712462 14.399277902799136 1.5455141473019776 0 0 0
27069 3 1.5587066432366354 17.099211141157877 1.5456502895727418 0 0 0
27068 3 4.676277586415477 17.09917584861797 1.5456128296730929 0 0 0
27067 3 7.793767151336254 17.09914752236462 1.5455687405755152 0 0 0
27066 3 10.911321356398311 17.099104552307832 1.5455021947623178 0 0 0
27065 3 14.028879785534144 17.099104919909923 1.5454726923866178 0 0 0
27064 3 17.146434128473594 17.099112153788816 1.545468793336403 0 0 0
27063 3 20.263989218328895 17.099141594999132 1.545496238122646 0 0 0
27062 3 23.38148520079244 17.09914502000694 1.5455091737951456 0 0 0
27085 3 26.499046737272387 17.099108605619804 1.5455128747468185 0 0 0
27086 3 29.616589010568003 17.09907438063825 1.5455673802955239 0 0 0
27087 3 32.73408944906053 17.099087450731993 1.5455793075455035 0 0 0
27088 3 35.85163937929517 17.09916397306682 1.5455638276620127 0 0 0
8818 1 6.235037063200982 28.79852009584988 3.104396847831318 0 0 0
27112 3 3.1174663821511417 19.79902082191968 1.545686568837775 0 0 0
27111 3 6.234998196326305 19.79898709813269 1.545472031954635 0 0 0
27110 3 9.352517605493146 19.798978196222293 1.54552744212908 0 0 0
27109 3 12.470095918286585 19.798969344526583 1.5454606955336003 0 0 0
27108 3 15.587665917013922 19.798972251668904 1.545447486613203 0 0 0
27107 3 18.705237184604876 19.798981045492948 1.5454806883071446 0 0 0
27106 3 21.822738159349008 19.798977717397477 1.5453741168345776 0 0 0
27105 3 24.940241823453217 19.798980500531904 1.5455096314207821 0 0 0
27104 3 28.05781101134892 19.798965811580565 1.5455100473780323 0 0 0
27103 3 31.175356927762678 19.798976438791264 1.5455381801596912 0 0 0
27102 3 34.29289865941102 19.79899071834289 1.5455735371666761 0 0 0
27113 3 37.41039466775241 19.79901033587971 1.5454581535677003 0 0 0
27101 3 1.558649918635194 22.498823728185 1.5457224953006665 0 0 0
27099 3 4.676230243890187 22.49880635526138 1.5456124661913682 0 0 0
27098 3 7.793762392889669 22.498798950538156 1.545535663262264 0 0 0
27097 3 10.911325552855986 22.498830188256516 1.5454558533817042 0 0 0
27096 3 14.02888455964101 22.498834957159662 1.5454298937295665 0 0 0
27095 3 17.14643910127763 22.498835781425285 1.5454358127564323 0 0 0
27094 3 20.263986408601912 22.49880538802615 1.5454793741721768 0 0 0
27093 3 23.381494840234943 22.4988061516487 1.5454943134566879 0 0 0
27092 3 26.49904246022663 22.49883724603306 1.5454843271038716 0 0 0
27091 3 29.616589422876483 22.498843686788526 1.5455109342224673 0 0 0
27090 3 32.73413882543762 22.498868822253232 1.5455621958240275 0 0 0
27089 3 35.85163137134242 22.498852938195512 1.545609892713359 0 0 0
8827 1 34.29287081417199 28.798524745357856 3.1044801984746955 0 0 0
27142 3 3.1174508105564436 25.198677042496396 1.5456063956556256 0 0 0
27170 3 6.235002504444162 25.198683153457335 1.5455219889021976 0 0 0
27171 3 9.352550992463462 25.198685662374988 1.545457096527269 0 0 0
27172 3 12.470110835448194 25.198698735483642 1.5454214665432762 0 0 0
27252 3 15.587666517179297 25.198702923880013 1.5454184986247648 0 0 0
27251 3 18.70521577977314 25.198698091772926 1.545439002670401 0 0 0
27250 3 21.822743774776242 25.19869931586593 1.5454619535504346 0 0 0
27249 3 24.94027197385057 25.198701394457792 1.5454744886504643 0 0 0
27248 3 28.057820528040057 25.198711572267886 1.5454917625123978 0 0 0
27247 3 31.17538514026795 25.198715150912705 1.5455444701994159 0 0 0
27246 3 34.2928876045211 25.19870445639184 1.5454622374289078 0 0 0
27245 3 37.41037793285856 25.198735582020227 1.5456329297022975 0 0 0
27244 3 1.558669051014698 27.898551671448594 1.5456435957066175 0 0 0
27243 3 4.676222731153055 27.898555355357107 1.5455355341513455 0 0 0
27242 3 7.793780775522449 27.898558874226282 1.5454635763341935 0 0 0
27253 3 10.91133728436865 27.89856298919866 1.5454202666744794 0 0 0
27241 3 14.02889401304627 27.89857034303895 1.5454100206121093 0 0 0
27239 3 17.14644550329318 27.89857286760798 1.5454268658865333 0 0 0
27238 3 20.26398656168593 27.89858344017212 1.5454556461073892 0 0 0
27237 3 23.38151187402271 27.898583313149928 1.5454771510012635 0 0 0
27236 3 26.49903708544894 27.89858866493983 1.5454925793362455 0 0 0
27235 3 29.616581574900447 27.898579892759617 1.5455120983747672 0 0 0
27234 3 32.73413100334155 27.898541020519776 1.5455661878319291 0 0 0
27233 3 35.85165548845775 27.89853149449429 1.5456234226288452 0 0 0
27232 3 38.96914858351243 27.898562686792147 1.5454795089129039 0 0 0
22870 2 1.5587689371627442 0.8999571014693422 4.663252157830809 0 0 0
8905 1 3.1175414465594087 1.7999058772158676 3.104348619669543 0 0 0
22869 2 4.676292301027642 0.8999545328636455 4.663274879731931 0 0 0
8906 1 6.235077001073575 1.79990702006538 3.1043849420986103 0 0 0
22868 2 7.793826576653517 0.8999525856501867 4.663313111780792 0 0 0
8908 1 9.352615909219386 1.7999038980864295 3.1044277850257633 0 0 0
8910 1 12.470127870880448 1.7999186838490566 3.1044585299544907 0 0 0
22867 2 10.911356068612333 0.8999422483975067 4.663345902913928 0 0 0
8912 1 15.587665597852864 1.799903481512392 3.1044456582007793 0 0 0
22866 2 14.028902827989217 0.8999483071711756 4.663351255608759 0 0 0
22746 2 17.146434813910442 0.8999511084719531 4.663338866267144 0 0 0
8914 1 18.705266996200578 1.799864618449563 3.104451242801527 0 0 0
8892 1 21.82263887132676 1.7998627412008141 3.1044289556934848 0 0 0
22745 2 23.381493310748425 0.899955917789165 4.663295650043958 0 0 0
8891 1 24.940246034033965 1.7999149115871675 3.1043846031116997 0 0 0
8867 1 28.05779318228817 1.7999151086338125 3.104386863827786 0 0 0
22651 2 26.499019517765255 0.899952590046392 4.6632848087621275 0 0 0
8869 1 31.175343666434994 1.799926479088588 3.1044135656748173 0 0 0
22625 2 29.616556365973295 0.8999527629831755 4.66329545877053 0 0 0
22624 2 32.734078997914274 0.8999505476505641 4.66332739932611 0 0 0
8872 1 34.292930218390126 1.7998811768137741 3.104474959359867 0 0 0
8873 1 37.410300590924564 1.7998699064550747 3.1045180066550317 0 0 0
15803 2 2.0586766888403566e-05 25.19872265950748 4.663508013246001 1 0 0
8874 1 1.55877365867993 4.499773995717635 3.1043318125674744 0 0 0
8875 1 4.676311264823556 4.499776446422882 3.1043655531511782 0 0 0
22623 2 3.117526111714585 3.5998186829466747 4.663252744940069 0 0 0
8878 1 7.793841898579229 4.499770984243756 3.10442357768385 0 0 0
22622 2 6.235049073358928 3.5998117843642743 4.663297839132316 0 0 0
22621 2 9.35259057239968 3.5998018511483187 4.663342113559565 0 0 0
8880 1 10.911367942508662 4.49986581931939 3.104487916274517 0 0 0
22620 2 12.470125456295728 3.5998137553732947 4.6633721973676625 0 0 0
8881 1 14.028902132195348 4.49977644929858 3.1044767929992485 0 0 0
22619 2 15.587669793073683 3.59980241925097 4.663366152466053 0 0 0
8883 1 17.14641306883346 4.499765498523844 3.1044457621987354 0 0 0
8884 1 20.26395213130773 4.499771304224483 3.1044254038331403 0 0 0
22618 2 18.705191546971328 3.59981191372483 4.663335623763037 0 0 0
8886 1 23.38148689891565 4.499762176506418 3.1043976978394694 0 0 0
22617 2 21.822734227940614 3.599810481338724 4.663312115162272 0 0 0
22626 2 24.94025890362671 3.5998150669456876 4.663299522460892 0 0 0
8890 1 26.49902921481631 4.499778637940455 3.1043988185245137 0 0 0
22616 2 28.057781916314717 3.5998098345756557 4.663312313595518 0 0 0
8917 1 29.616563425984612 4.499778301626232 3.104431621327003 0 0 0
22614 2 31.175319689048987 3.599807942437255 4.6633397779283605 0 0 0
8945 1 32.7340984115538 4.499860572665708 3.1044837523856263 0 0 0
8946 1 35.85163439049894 4.499779758959115 3.1044948632392844 0 0 0
22613 2 34.29284389466672 3.5998117936976812 4.663370884105129 0 0 0
23295 2 35.85161795373139 27.898571235073323 4.663396783545028 0 0 0
22612 2 37.41039751044786 3.59982412861778 4.663393817959777 0 0 0
22610 2 1.5587620200062084 6.299677934993379 4.663244267180241 0 0 0
8951 1 3.1175443162315544 7.199642072063129 3.104357868731995 0 0 0
22609 2 4.676294006019043 6.299680359234659 4.663279788368112 0 0 0
8952 1 6.23509067116058 7.199647299816655 3.1044048719212065 0 0 0
22608 2 7.793816419285665 6.299678471981751 4.663333827929289 0 0 0
8954 1 9.352673481310163 7.199597580336451 3.1044813804607507 0 0 0
8955 1 12.470040402400196 7.199581779621657 3.1045246164258713 0 0 0
8957 1 15.587646253993798 7.1997290171526505 3.104492707635368 0 0 0
22607 2 14.02890648093939 6.299678872882815 4.663383302941856 0 0 0
22606 2 17.146424625390498 6.299671423176123 4.663353146162845 0 0 0
8960 1 18.70518369617263 7.199627433272666 3.1044381914484434 0 0 0
22615 2 20.263966067043647 6.299679049394453 4.663331915242103 0 0 0
8961 1 21.82272028327998 7.1996305334934725 3.104407904140401 0 0 0
22627 2 23.381492974329515 6.299671152103511 4.663308537050567 0 0 0
8963 1 24.940262369938832 7.19963420084476 3.1044071184755824 0 0 0
8965 1 28.05781398746432 7.199650036938108 3.1044345771748794 0 0 0
22628 2 26.499026750829724 6.29967886201507 4.663317905919431 0 0 0
8967 1 31.175399727789397 7.199599698820357 3.104488133190443 0 0 0
22629 2 29.616550990834284 6.299678912308109 4.663348858746246 0 0 0
8942 1 34.292773307498344 7.19959054669452 3.104501523073268 0 0 0
22649 2 35.851623679583255 6.299698349152602 4.663384149404117 0 0 0
8929 1 37.41037897111955 7.199623604365447 3.104458667619254 0 0 0
22706 2 10.911362042490616 27.898573384598535 4.663234230315929 0 0 0
8919 1 1.5587717831545 9.89951100962105 3.1043717338210355 0 0 0
8920 1 4.676304537539607 9.899504138204106 3.1044094328920155 0 0 0
22648 2 3.117519697565575 8.99953416381003 4.6632853366538125 0 0 0
8921 1 7.793839743922692 9.899578815562194 3.1044679523918415 0 0 0
22647 2 6.2350563057746 8.999535036150917 4.663323502646506 0 0 0
22646 2 9.352580330169122 8.999538296534716 4.663364023242152 0 0 0
8924 1 10.911371719372621 9.899495769054559 3.104483231766004 0 0 0
22645 2 12.470134962915306 8.999547505530959 4.6633866925253225 0 0 0
8926 1 14.028970726876642 9.899427970462318 3.1044927459306604 0 0 0
8928 1 17.146339154004835 9.899442441560545 3.1044599240550452 0 0 0
8930 1 20.263945264329962 9.899493788058892 3.1044089734881224 0 0 0
22644 2 18.705196237217734 8.999548135234022 4.663331406860457 0 0 0
8931 1 23.381492534582 9.89949513650197 3.1044066227942224 0 0 0
22643 2 21.82272171656148 8.999543699882766 4.663312434810809 0 0 0
22642 2 24.940245783433387 8.99953502085537 4.663326100464086 0 0 0
8934 1 26.499030363085776 9.899498355940473 3.1044443875703607 0 0 0
22641 2 28.05778847864649 8.999535553571752 4.663357426160552 0 0 0
8935 1 29.616569091785074 9.899586073520988 3.1045013141074724 0 0 0
22640 2 31.17531910797623 8.999534325011409 4.663377603659052 0 0 0
8937 1 32.734085622043935 9.899504923447374 3.104480973924211 0 0 0
8938 1 35.85161725209988 9.899484775097063 3.10444357234458 0 0 0
22639 2 34.29286778314879 8.999550140418023 4.663371716661144 0 0 0
8828 1 37.4104681633306 28.798458099977843 3.1045232491875674 0 0 0
22638 2 37.41039797624936 8.99954978030727 4.66334465508513 0 0 0
22637 2 1.5587649407971675 11.699395203691388 4.66330937322536 0 0 0
9076 1 3.117540875937212 12.599380344039927 3.1044260192378195 0 0 0
22636 2 4.6762892740723325 11.699401313006819 4.663328962046195 0 0 0
9208 1 6.235144253087332 12.599315288020557 3.104467886882031 0 0 0
9210 1 9.352509448328652 12.59930858303511 3.1044776135822483 0 0 0
9212 1 12.470114401387931 12.599339102122144 3.104440177420027 0 0 0
22635 2 10.91135705801977 11.699419119280348 4.663365408402334 0 0 0
9214 1 15.587650313994933 12.599345068935273 3.104426492435647 0 0 0
22634 2 14.028888513048521 11.6994041478826 4.663347307405953 0 0 0
22633 2 17.146434584099627 11.699405491368875 4.663324418216613 0 0 0
9217 1 18.705188642526533 12.599342811275635 3.1044008805713714 0 0 0
22632 2 20.263962636261212 11.6994062348321 4.663308086160526 0 0 0
9219 1 21.82272951898265 12.59935411938064 3.104395175643451 0 0 0
22631 2 23.38149040064042 11.699406718670687 4.663312081986383 0 0 0
9220 1 24.940274589101104 12.599362958013872 3.104419694051699 0 0 0
9222 1 28.0578840117255 12.599307182335973 3.104499182041487 0 0 0
22630 2 26.499010061568498 11.699408492349159 4.663350409032339 0 0 0
9224 1 31.1752673519747 12.599391482059886 3.104487035192008 0 0 0
22605 2 32.73408735753311 11.699419792134623 4.663366683087066 0 0 0
9226 1 34.29284916463658 12.599361968052644 3.104456302944626 0 0 0
22604 2 35.85163308466188 11.699402545355007 4.663344014587765 0 0 0
9227 1 37.410379863178825 12.599359205952013 3.104416103771248 0 0 0
26922 3 38.969143853989614 0.9000247348151925 1.5456033925213313 0 0 0
9228 1 1.5587494430118267 15.299247926551493 3.104490754205368 0 0 0
9229 1 4.676299125154463 15.299225877990795 3.1044744707691163 0 0 0
22581 2 3.1175288845304654 14.399256360353244 4.663369642038095 0 0 0
9218 1 7.793813815005082 15.299226784566237 3.104460124371278 0 0 0
22579 2 6.2350604393402085 14.399252267203172 4.663364486399103 0 0 0
22578 2 9.352599447318363 14.399267565982376 4.663347290911056 0 0 0
9182 1 10.911352058941626 15.299200260023675 3.104421737287036 0 0 0
22577 2 12.47013171765516 14.399266079658531 4.663325480316735 0 0 0
9184 1 14.028887822484565 15.299206979497788 3.1043974789200903 0 0 0
22576 2 15.587661723854469 14.399272000350772 4.6633103788919845 0 0 0
9186 1 17.146424618131434 15.299209119801155 3.104387387206001 0 0 0
9187 1 20.26396755198803 15.2992181993746 3.1043868214741197 0 0 0
22575 2 18.705197983673933 14.399265002341746 4.663296110255325 0 0 0
9188 1 23.381493607663362 15.299222286613386 3.104399072108671 0 0 0
22574 2 21.822725105104105 14.399264527351493 4.663300186035316 0 0 0
22573 2 24.94025113370173 14.399272596041628 4.663322164464803 0 0 0
9191 1 26.49904496591762 15.29920867499686 3.104431204648582 0 0 0
22572 2 28.05777701585441 14.399271829157374 4.663361975222624 0 0 0
9204 1 29.616648551486293 15.299166718881343 3.104504570855198 0 0 0
9195 1 32.734010610043356 15.29916599920017 3.1045025020724895 0 0 0
9196 1 35.851619156204215 15.29923383736954 3.104442952282323 0 0 0
22571 2 34.29287641745465 14.399271210115714 4.6633620261897155 0 0 0
22708 2 7.793837891670231 27.89857657115237 4.6632774507054515 0 0 0
22580 2 37.41039403274147 14.399263404149886 4.663330224209597 0 0 0
22570 2 1.5587540055379656 17.099110637120244 4.663446821153466 0 0 0
9201 1 3.1175149454876196 17.9990891812284 3.104549941802808 0 0 0
22568 2 4.676310318481116 17.09910614201885 4.663409063453543 0 0 0
9202 1 6.235046550412995 17.999176158007774 3.1045133494295283 0 0 0
22566 2 7.79383421529146 17.099126929444825 4.663366136167235 0 0 0
9205 1 9.352582672408046 17.99907357554774 3.1044348884836848 0 0 0
9231 1 12.47011594209266 17.999070141001248 3.104382174836757 0 0 0
22565 2 10.91137314493128 17.099122708689364 4.663318497260824 0 0 0
9233 1 15.587658480579192 17.999072365504468 3.1043674652666633 0 0 0
22564 2 14.028895486827935 17.09913187025607 4.663286916656265 0 0 0
22563 2 17.146421445100547 17.099126699106957 4.663285752609846 0 0 0
9262 1 18.705194255977247 17.999073162198588 3.1043830614181993 0 0 0
22562 2 20.263961495691113 17.099122845005027 4.663290911655042 0 0 0
9263 1 21.822729948767638 17.999168079215224 3.104416799910905 0 0 0
22561 2 23.381484583360027 17.099124778142954 4.663304295772257 0 0 0
9265 1 24.9402684257153 17.99907144901456 3.104410969801748 0 0 0
9267 1 28.05780070159342 17.999063311722644 3.104431415612546 0 0 0
22560 2 26.49902211779424 17.099122597330044 4.663332102521341 0 0 0
9269 1 31.17533284895975 17.999079566716862 3.1044647122340145 0 0 0
22559 2 29.61654979369732 17.09913499352217 4.663362910222264 0 0 0
22569 2 32.7340957885758 17.099123310835434 4.663376446013886 0 0 0
9272 1 34.29285614989472 17.99907173002436 3.1044695239967215 0 0 0
22582 2 35.85163426227928 17.099121761495628 4.663361678301067 0 0 0
9273 1 37.41038793930914 17.999182215613313 3.1044820358411847 0 0 0
22692 2 32.73408111535975 27.898566122770198 4.66336050160758 0 0 0
9274 1 1.5586638597212383 20.698903545016965 3.1046295527406444 0 0 0
9275 1 4.676342004326401 20.698902731528058 3.1045445253253843 0 0 0
22593 2 3.117545865592205 19.798995175708022 4.663461796756291 0 0 0
9277 1 7.79372852330906 20.69888994629558 3.1044683389848347 0 0 0
22602 2 9.352606208359028 19.798998412745544 4.663322517559226 0 0 0
9279 1 10.911338600957166 20.698937088365213 3.104379980142042 0 0 0
22601 2 12.470128864247542 19.798993707484502 4.66327374663976 0 0 0
9281 1 14.02888771284156 20.69893313153833 3.1043480075666423 0 0 0
22600 2 15.587660022487054 19.798993566447024 4.663260662730962 0 0 0
9259 1 17.146437052989473 20.698937632736214 3.1043541989364734 0 0 0
9258 1 20.264045030417208 20.698887664643298 3.10440333305798 0 0 0
22599 2 18.705187749839407 19.798993727089083 4.663275583637379 0 0 0
9244 1 23.381418501509717 20.69888711848101 3.1044169249307054 0 0 0
22598 2 24.940259239735727 19.798991659930437 4.663304204365651 0 0 0
9236 1 26.499025914268966 20.698935823978374 3.1044001024039587 0 0 0
22597 2 28.057785228205006 19.798988469080165 4.663322912682555 0 0 0
9238 1 29.61656855232811 20.6989363353396 3.104424761582676 0 0 0
22596 2 31.1753286616976 19.79900133644694 4.66335395204806 0 0 0
9240 1 32.73411474685732 20.698949033047043 3.1044545731892175 0 0 0
9241 1 35.85169920239106 20.69890459308337 3.1044979424925714 0 0 0
22595 2 34.292857520177854 19.798988023033854 4.663370247383708 0 0 0
22700 2 20.263958197145403 27.8985697129509 4.663269205298689 0 0 0
22603 2 1.5587872450549187 22.498859462171634 4.6634981908140585 0 0 0
9246 1 3.1174937658839554 23.398784934354087 3.1045379216912616 0 0 0
22594 2 4.676303961054314 22.4988615686589 4.663409651809935 0 0 0
9247 1 6.2350367669671 23.398797231026744 3.104457031122463 0 0 0
22592 2 7.793844937750009 22.498855328870356 4.663330125683175 0 0 0
9249 1 9.352575288401628 23.398785697713773 3.1043811819767764 0 0 0
9251 1 12.47011783299325 23.398795721632336 3.1043388616550143 0 0 0
22591 2 10.911368722347284 22.49885533830705 4.66327235880364 0 0 0
9253 1 15.587659835043974 23.398796368135006 3.10433178957924 0 0 0
22590 2 14.02889308715871 22.498851769345126 4.663244003813644 0 0 0
22589 2 17.146420472664254 22.498851154604473 4.66325228064396 0 0 0
9181 1 18.70520064987537 23.39878756370324 3.104351647272377 0 0 0
22588 2 20.2639518174558 22.498845941825365 4.6632740881926305 0 0 0
9283 1 21.822732976589542 23.398797549002442 3.1043802042790727 0 0 0
22587 2 23.381497551329023 22.49884414347951 4.663289105296919 0 0 0
9178 1 24.94026476315946 23.398787173416988 3.1043836659854573 0 0 0
9103 1 28.057801831787028 23.398799955278154 3.1043999271852396 0 0 0
22586 2 26.49902619131036 22.498848051233395 4.6633007923855665 0 0 0
9105 1 31.1753350406352 23.398800318963094 3.1044404358869797 0 0 0
22585 2 29.616549740802895 22.498848983697997 4.663327958999777 0 0 0
22584 2 32.73408973776516 22.498847756538208 4.663360650290808 0 0 0
9108 1 34.29286734864408 23.398883266044066 3.1044960956573413 0 0 0
22583 2 35.85161159762136 22.49884075281119 4.663385641416387 0 0 0
9109 1 37.410397994738695 23.39880859789995 3.1045076224575174 0 0 0
22720 2 23.381493391734207 27.898565183264555 4.663293492783905 0 0 0
9110 1 1.5587325725405048 26.098646891010763 3.1045536528448388 0 0 0
9111 1 4.67626791967693 26.098654380331002 3.104458574404702 0 0 0
22650 2 3.1175475138404662 25.1987136425113 4.6634230131787575 0 0 0
9114 1 7.7938085696237165 26.098656590315187 3.104383918104639 0 0 0
22652 2 6.235076549694095 25.198723823951035 4.6633392093831 0 0 0
22744 2 9.35260259457602 25.1987126819105 4.6632703583790285 0 0 0
9116 1 10.911347494387897 26.098656660756852 3.104335064255036 0 0 0
22653 2 12.470128504616792 25.19871347251139 4.663235378838993 0 0 0
9117 1 14.028890391115596 26.098660236160043 3.1043195084916935 0 0 0
22719 2 15.587655236834667 25.198710609117498 4.663232588339495 0 0 0
9119 1 17.146432254861942 26.0986587541503 3.1043320736148066 0 0 0
9120 1 20.26396889684159 26.09866319608402 3.104357872643595 0 0 0
22718 2 18.705188534713518 25.198705685663636 4.6632522722638665 0 0 0
9122 1 23.381501375850778 26.098662355091736 3.104377133778655 0 0 0
22717 2 21.822725409793254 25.198711540886965 4.663279020111677 0 0 0
22716 2 24.9402619148973 25.19870130209866 4.663287791130792 0 0 0
9102 1 26.499034006469277 26.098663540876625 3.1043883250411595 0 0 0
22715 2 28.057792975011786 25.19871109275581 4.663305039829056 0 0 0
9113 1 29.616578268849665 26.098667208674232 3.1044145008164956 0 0 0
22714 2 31.175317589375812 25.19871408458783 4.663339878120043 0 0 0
9087 1 32.73418206958894 26.098614905861314 3.1044803536942425 0 0 0
9077 1 35.851537630131105 26.0986076505903 3.104533840078156 0 0 0
22701 2 17.14641957380637 27.89856768796169 4.663240770117678 0 0 0
22713 2 37.41038959165978 25.19871165234753 4.66340884256708 0 0 0
22712 2 1.5587772209743282 27.898574625034485 4.663429038400257 0 0 0
22676 2 29.61655550806484 27.898566618222542 4.663328384303904 0 0 0
22711 2 4.676310043828647 27.89857724997516 4.663351324030932 0 0 0
22722 2 26.499021187911534 27.8985646898818 4.663306079933725 0 0 0
27231 3 38.96914006193772 22.498831975623467 1.5455992051292642 0 0 0
8820 1 12.470120297537 28.798523508447715 3.1043160752058894 0 0 0
8821 1 15.587662045820348 28.79852495670119 3.1043232242708054 0 0 0
9782 1 5.306423231306718e-06 1.799903864290187 3.1043367528688486 1 0 0
27313 3 9.438898658700121e-06 3.599811134581541 1.545420562622881 1 0 0
8817 1 3.117497536348464 28.798518304817442 3.104482625345511 0 0 0
22707 2 38.969149788092544 17.09911321837535 4.663348138564291 0 0 0
9243 1 38.96908252278511 20.698903157917634 3.1045052566692046 0 0 0
8822 1 18.705201244023986 28.79852768800456 3.104351538445441 0 0 0
22702 2 38.96915052975339 6.2996879442780385 4.663366069768335 0 0 0
9198 1 38.96914158845788 15.299233233391403 3.104416398171037 0 0 0
27309 3 9.583872570776966e-06 8.999575271174802 1.5454433117633377 1 0 0
9876 1 5.55150826830241e-06 7.199643110841711 3.104331568311605 1 0 0
15457 2 2.4981357885583045e-06 3.5998209965888948 4.663234566423763 1 0 0
27261 3 38.969130890955455 17.09917997813376 1.5455510894180182 0 0 0
9079 1 38.96914134970716 26.0987575261517 3.104527331049028 0 0 0
26923 3 38.96914670892335 6.299624239072324 1.5455732410696263 0 0 0
27210 3 38.96913724052124 11.699400229849857 1.545496355445069 0 0 0
26893 3 3.1174282970440537 30.598428108909307 1.5455824483947491 0 0 0
26892 3 6.2349995163094984 30.598425447797265 1.545482759232554 0 0 0
26891 3 9.352562013576462 30.59843260403436 1.545429796092108 0 0 0
26877 3 12.470120135548092 30.598437037286757 1.545410033762472 0 0 0
26861 3 15.58767421310808 30.59844147191549 1.545420829341868 0 0 0
26860 3 18.705224405510393 30.598447232751724 1.5454533314941332 0 0 0
26859 3 21.822773285369006 30.598473074154835 1.545507698970217 0 0 0
26858 3 24.940259317851087 30.59848296945926 1.545531868373698 0 0 0
26857 3 28.05779810100273 30.598454637599136 1.5455243611179317 0 0 0
26856 3 31.175339007031116 30.59844666980079 1.545539982148423 0 0 0
26855 3 34.29286791023216 30.59842007074183 1.545560295492447 0 0 0
26854 3 37.41039450552059 30.598382169372716 1.5455986891633147 0 0 0
26853 3 1.558684857107895 33.298254977792546 1.5456244413774147 0 0 0
26852 3 4.676238417380143 33.298286937703246 1.5455098568161743 0 0 0
26851 3 7.793792159706835 33.298299185112015 1.5454509225769817 0 0 0
26850 3 10.911346424249075 33.2983054085269 1.5454216220258261 0 0 0
26849 3 14.028899764109832 33.298308246150285 1.5454216433387677 0 0 0
26848 3 17.146454840457544 33.298307870806454 1.545445390885396 0 0 0
26847 3 20.264020053758454 33.29831131431283 1.545504260710986 0 0 0
26846 3 23.38152058406727 33.298307513538205 1.5454194896302855 0 0 0
26845 3 26.499023007006876 33.298338087346 1.5455870110623324 0 0 0
26844 3 29.616536129682803 33.29832874148494 1.5455716541875448 0 0 0
26843 3 32.734108092099305 33.29831686814396 1.545575918788115 0 0 0
26842 3 35.85160804320565 33.29829222687865 1.5455807885161503 0 0 0
27000 3 2.175924079686495e-06 52.19736511773083 1.5454744176595352 1 0 0
26841 3 3.117459183640288 35.998137641532296 1.5455476164825726 0 0 0
26840 3 6.2350215378320195 35.998162822955834 1.5454773990619504 0 0 0
26839 3 9.352575247371254 35.998174787730406 1.5454449609880387 0 0 0
26862 3 12.47012260854139 35.99817896204829 1.5454357595314256 0 0 0
26863 3 15.58766671570502 35.998176683963166 1.5454452974850112 0 0 0
26864 3 18.705213661757654 35.99816593073396 1.5454694140048633 0 0 0
26865 3 21.822766229118255 35.99812584841653 1.5455252948298375 0 0 0