LAMMPS data file via write_data, version 2 Aug 2023, timestep = 853, units = metal

37136 atoms
3 atom types

0 1247.0128045394924 xlo xhi
0 86.39568152232034 ylo yhi
0 50 zlo zhi
0 0 0 xy xz yz

Masses

1 95.94
2 32.065
3 32.065

Atoms # atomic

1 3 1.5587101192147657 0.8999282576224932 1.5467462579372837 0 0 0
2 3 4.67613279081948 0.8999438696921084 1.5466489807476373 0 0 0
3 3 7.793570713505961 0.8999519016235803 1.5465413635882768 0 0 0
4 3 10.911001324044777 0.8999605123126351 1.5464348850892895 0 0 0
5 3 14.028433968817113 0.8999343877363991 1.5463511278684055 0 0 0
6 3 17.145860992245524 0.8999481807964052 1.5462236436823087 0 0 0
7 3 20.26329839980904 0.899924998474078 1.5460821185108549 0 0 0
8 3 23.380789816927354 0.8999664337376367 1.5459596024028124 0 0 0
9 3 26.498411973855358 0.8999586445540845 1.5456956197445877 0 0 0
10 3 29.616034220277047 0.8999639297839622 1.5455205360710276 0 0 0
11 3 32.73363301541345 0.8999590985692454 1.5454248747912647 0 0 0
12 3 3.117419916174338 3.5998083887510797 1.5466999133592807 0 0 0
13 3 6.234851096841992 3.5998073908025967 1.546598671388432 0 0 0
14 3 9.352286083168783 3.5998267288735786 1.546485530283061 0 0 0
15 3 12.469722354081233 3.5998083446584155 1.546387756057002 0 0 0
16 3 15.587138251413124 3.599804878593349 1.546293967846475 0 0 0
17 3 18.7045869044747 3.5998123575651575 1.5461499652130275 0 0 0
18 3 21.822023086153212 3.599800730640105 1.5461054963705079 0 0 0
19 3 24.939620072922587 3.599829888750615 1.5458073945142894 0 0 0
20 3 28.05721659384859 3.5998310775893327 1.5455976004988066 0 0 0
21 3 31.174836892086933 3.599824365075799 1.5454630494817434 0 0 0
22 3 34.29241953000087 3.599821953924262 1.5453841134955961 0 0 0
23 3 1.5587101192133217 6.299658352767915 1.546746257937887 0 0 0
24 3 4.676132790819555 6.299673964836983 1.5466489807477943 0 0 0
25 3 7.793570713506045 6.299681996768605 1.5465413635881293 0 0 0
26 3 10.911001324044861 6.299690607458014 1.54643488508938 0 0 0
27 3 14.028433968817332 6.2996644828815445 1.5463511278684645 0 0 0
28 3 17.145860992245616 6.299678275941575 1.5462236436821717 0 0 0
29 3 20.263298399808843 6.299655093619133 1.5460821185109155 0 0 0
30 3 23.38078981692745 6.299696528882576 1.5459596024027924 0 0 0
31 3 26.49841197385522 6.299688739699145 1.5456956197446183 0 0 0
32 3 29.61603422027694 6.299694024928986 1.545520536071013 0 0 0
33 3 32.73363301541341 6.299689193714133 1.5454248747913233 0 0 0
34 3 3.1174199161761424 8.999538483896256 1.546699913359466 0 0 0
35 3 6.234851096842581 8.999537485947592 1.5465986713884625 0 0 0
36 3 9.352286083168778 8.999556824018745 1.5464855302830014 0 0 0
37 3 12.469722354081364 8.999538439803372 1.5463877560569246 0 0 0
38 3 15.5871382514131 8.999534973738294 1.5462939678465688 0 0 0
39 3 18.704586904474706 8.999542452710074 1.5461499652130273 0 0 0
40 3 21.822023086153152 8.99953082578502 1.546105496370571 0 0 0
41 3 24.939620072922697 8.999559983895722 1.5458073945142894 0 0 0
42 3 28.057216593848633 8.999561172734271 1.5455976004988707 0 0 0
43 3 31.17483689208699 8.99955446022078 1.545463049481716 0 0 0
44 3 34.29241953000093 8.999552049069306 1.5453841134956132 0 0 0
45 3 1.5587101192149733 11.699388447913673 1.5467462579376765 0 0 0
46 3 4.6761327908192 11.69940405998227 1.5466489807477402 0 0 0
47 3 7.793570713505886 11.699412091913771 1.5465413635878797 0 0 0
48 3 10.911001324045248 11.69942070260323 1.5464348850891878 0 0 0
49 3 14.028433968817541 11.69939457802661 1.5463511278684685 0 0 0
50 3 17.145860992245545 11.699408371086568 1.5462236436821952 0 0 0
51 3 20.263298399808782 11.699385188764081 1.5460821185109082 0 0 0
52 3 23.380789816927294 11.699426624027657 1.5459596024027917 0 0 0
53 3 26.498411973855262 11.69941883484414 1.5456956197446368 0 0 0
54 3 29.616034220276976 11.699424120073981 1.5455205360710238 0 0 0
55 3 32.73363301541327 11.699419288859078 1.5454248747913462 0 0 0
56 3 3.117419916175148 14.399268579041696 1.5466999133593118 0 0 0
57 3 6.234851096841714 14.399267581092847 1.5465986713886262 0 0 0
58 3 9.352286083168828 14.399286919164004 1.5464855302831424 0 0 0
59 3 12.46972235408121 14.399268534948542 1.546387756057033 0 0 0
60 3 15.587138251413204 14.399265068883196 1.5462939678464702 0 0 0
61 3 18.70458690447468 14.399272547855082 1.5461499652130697 0 0 0
62 3 21.822023086153116 14.399260920930137 1.5461054963705214 0 0 0
63 3 24.939620072922576 14.399290079040709 1.545807394514282 0 0 0
64 3 28.057216593848654 14.399291267879326 1.5455976004988543 0 0 0
65 3 31.174836892086905 14.399284555365718 1.545463049481661 0 0 0
66 3 34.292419530000956 14.399282144214455 1.545384113495649 0 0 0
67 3 1.5587101192149881 17.099118543057983 1.5467462579368751 0 0 0
68 3 4.676132790819219 17.09913415512751 1.546648980747707 0 0 0
69 3 7.793570713506254 17.099142187058995 1.5465413635879004 0 0 0
70 3 10.91100132404492 17.099150797748408 1.5464348850893523 0 0 0
71 3 14.028433968817223 17.09912467317146 1.546351127868491 0 0 0
72 3 17.145860992245616 17.099138466231473 1.5462236436821644 0 0 0
73 3 20.2632983998088 17.09911528390919 1.5460821185109226 0 0 0
74 3 23.380789816927415 17.099156719172722 1.5459596024027982 0 0 0
75 3 26.498411973855262 17.099148929989187 1.5456956197446747 0 0 0
76 3 29.61603422027696 17.099154215219023 1.545520536071054 0 0 0
77 3 32.73363301541331 17.09914938400412 1.5454248747912953 0 0 0
78 3 3.1174199161748053 19.798998674185963 1.5466999133592212 0 0 0
79 3 6.234851096841592 19.798997676237953 1.5465986713889257 0 0 0
80 3 9.35228608316903 19.799017014309218 1.5464855302828355 0 0 0
81 3 12.469722354080854 19.79899863009383 1.5463877560570516 0 0 0
82 3 15.587138251413318 19.79899516402812 1.546293967846418 0 0 0
83 3 18.704586904474883 19.799002643000033 1.5461499652130504 0 0 0
84 3 21.822023086153116 19.79899101607507 1.5461054963705134 0 0 0
85 3 24.939620072922615 19.799020174185763 1.5458073945142679 0 0 0
86 3 28.057216593848594 19.799021363024526 1.5455976004988663 0 0 0
87 3 31.17483689208697 19.799014650510774 1.545463049481697 0 0 0
88 3 34.29241953000089 19.7990122393595 1.5453841134956383 0 0 0
89 3 1.5587101192148278 22.498848638202336 1.5467462579373645 0 0 0
90 3 4.676132790820025 22.498864250272327 1.5466489807469879 0 0 0
91 3 7.79357071350623 22.498872282203877 1.5465413635884575 0 0 0
92 3 10.911001324044507 22.4988808928935 1.546434885089331 0 0 0
93 3 14.02843396881661 22.498854768316697 1.5463511278685818 0 0 0
94 3 17.145860992245744 22.49886856137647 1.5462236436821812 0 0 0
95 3 20.26329839980908 22.49884537905399 1.5460821185109137 0 0 0
96 3 23.380789816927425 22.498886814317643 1.5459596024027356 0 0 0
97 3 26.498411973855255 22.498879025134336 1.545695619744565 0 0 0
98 3 29.616034220276976 22.49888431036413 1.5455205360710393 0 0 0
99 3 32.73363301541337 22.49887947914927 1.5454248747913557 0 0 0
100 3 3.1174199161753626 25.19872876933166 1.5466999133590764 0 0 0
101 3 6.2348510968419655 25.198727771382924 1.5465986713883184 0 0 0
102 3 9.352286083169265 25.198747109454175 1.5464855302831582 0 0 0
103 3 12.469722354080618 25.19872872523883 1.5463877560569212 0 0 0
104 3 15.587138251412737 25.198725259173173 1.5462939678464378 0 0 0
105 3 18.704586904474898 25.198732738145164 1.5461499652131285 0 0 0
106 3 21.82202308615331 25.198721111220067 1.546105496370474 0 0 0
107 3 24.9396200729226 25.19875026933068 1.54580739451426 0 0 0
108 3 28.057216593848597 25.19875145816931 1.5455976004988068 0 0 0
109 3 31.17483689208703 25.198744745655876 1.5454630494817232 0 0 0
110 3 34.29241953000097 25.198742334504416 1.5453841134955584 0 0 0
111 3 1.5587101192137467 27.89857873334855 1.546746257937638 0 0 0
112 3 4.676132790819705 27.898594345417468 1.5466489807473036 0 0 0
113 3 7.793570713505195 27.89860237734898 1.5465413635881915 0 0 0
114 3 10.911001324044815 27.898610988038534 1.5464348850894432 0 0 0
115 3 14.02843396881672 27.898584863461682 1.5463511278683926 0 0 0
116 3 17.14586099224565 27.89859865652147 1.5462236436821504 0 0 0
117 3 20.263298399809074 27.898575474199088 1.5460821185109896 0 0 0
118 3 23.380789816927468 27.898616909462607 1.5459596024027615 0 0 0
119 3 26.498411973855216 27.898609120279204 1.545695619744598 0 0 0
120 3 29.616034220276998 27.898614405509193 1.5455205360710904 0 0 0
121 3 32.733633015413446 27.89860957429418 1.5454248747913468 0 0 0
122 3 3.1174199161750624 30.598458864476374 1.5466999133594868 0 0 0
123 3 6.234851096842472 30.598457866527447 1.5465986713883244 0 0 0
124 3 9.352286083168629 30.598477204599234 1.546485530283025 0 0 0
125 3 12.469722354080426 30.59845882038397 1.546387756057111 0 0 0
126 3 15.58713825141249 30.598455354318226 1.5462939678464116 0 0 0
127 3 18.704586904474795 30.59846283329011 1.5461499652129884 0 0 0
128 3 21.82202308615319 30.59845120636508 1.546105496370475 0 0 0
129 3 24.939620072922654 30.598480364475712 1.5458073945142587 0 0 0
130 3 28.057216593848597 30.598481553314386 1.5455976004988226 0 0 0
131 3 31.17483689208712 30.59847484080085 1.5454630494816903 0 0 0
132 3 34.29241953000088 30.59847242964952 1.5453841134955393 0 0 0
133 3 1.5587101192131627 33.29830882849275 1.546746257937692 0 0 0
134 3 4.6761327908187855 33.298324440561984 1.5466489807476291 0 0 0
135 3 7.793570713505768 33.29833247249353 1.546541363588424 0 0 0
136 3 10.911001324044552 33.298341083183445 1.5464348850893135 0 0 0
137 3 14.028433968816328 33.298314958606824 1.5463511278684707 0 0 0
138 3 17.14586099224533 33.29832875166672 1.546223643682192 0 0 0
139 3 20.26329839980911 33.29830556934423 1.5460821185108822 0 0 0
140 3 23.380789816927486 33.29834700460762 1.5459596024027102 0 0 0
141 3 26.4984119738551 33.29833921542416 1.5456956197445877 0 0 0
142 3 29.616034220276944 33.29834450065401 1.545520536071069 0 0 0
143 3 32.73363301541347 33.29833966943911 1.5454248747913235 0 0 0
144 3 3.1174199161759564 35.99818895962092 1.5466999133589077 0 0 0
145 3 6.234851096843148 35.99818796167263 1.5465986713883677 0 0 0
146 3 9.352286083168332 35.99820729974358 1.5464855302829075 0 0 0
147 3 12.469722354080577 35.998188915528516 1.546387756057126 0 0 0
148 3 15.587138251412554 35.998185449463406 1.5462939678464813 0 0 0
149 3 18.704586904474766 35.99819292843522 1.5461499652129893 0 0 0
150 3 21.822023086153333 35.99818130151012 1.5461054963705276 0 0 0
151 3 24.939620072922615 35.99821045962068 1.5458073945142399 0 0 0
152 3 28.057216593848416 35.99821164845946 1.5455976004987946 0 0 0
153 3 31.174836892086965 35.998204935945836 1.5454630494816959 0 0 0
154 3 34.29241953000097 35.99820252479454 1.5453841134956314 0 0 0
155 3 1.558710119215141 38.69803892363846 1.546746257937948 0 0 0
156 3 4.676132790819484 38.69805453570728 1.5466489807476507 0 0 0
157 3 7.793570713505968 38.698062567638374 1.5465413635881065 0 0 0
158 3 10.911001324044795 38.69807117832799 1.5464348850893181 0 0 0
159 3 14.028433968816847 38.69804505375173 1.5463511278685855 0 0 0
160 3 17.145860992245247 38.69805884681178 1.546223643682161 0 0 0
161 3 20.26329839980876 38.698035664489105 1.546082118510853 0 0 0
162 3 23.380789816927447 38.698077099752744 1.5459596024028317 0 0 0
163 3 26.498411973855333 38.69806931056915 1.5456956197445817 0 0 0
164 3 29.616034220276877 38.69807459579917 1.5455205360710866 0 0 0
165 3 32.73363301541343 38.69806976458424 1.545424874791305 0 0 0
166 3 3.1174199161746277 41.39791905476603 1.5466999133592818 0 0 0
167 3 6.234851096842685 41.39791805681803 1.546598671388672 0 0 0
168 3 9.352286083168698 41.39793739488883 1.5464855302829794 0 0 0
169 3 12.469722354080536 41.397919010673476 1.5463877560568073 0 0 0
170 3 15.58713825141259 41.39791554460842 1.5462939678465368 0 0 0
171 3 18.704586904474667 41.397923023580084 1.5461499652129553 0 0 0
172 3 21.822023086153216 41.397911396655125 1.5461054963704903 0 0 0
173 3 24.939620072922775 41.39794055476581 1.54580739451431 0 0 0
174 3 28.057216593848754 41.397941743604335 1.5455976004987735 0 0 0
175 3 31.17483689208713 41.39793503109091 1.5454630494816404 0 0 0
176 3 34.29241953000095 41.397932619939546 1.5453841134955457 0 0 0
179 1 3.1174638746347823 1.7999159971797711 3.1056855163539807 0 0 0
181 1 6.234905287353086 1.799908690811049 3.1055880767677584 0 0 0
182 1 9.352338244927697 1.7999370706248106 3.105465481704729 0 0 0
184 1 12.469766512990628 1.7999144782744505 3.105376779573476 0 0 0
186 1 15.587205966985655 1.799909859071002 3.105269500398909 0 0 0
189 1 18.704653505000177 1.7999170285120327 3.105135135028038 0 0 0
190 2 23.381091381584 0.8999558239600914 4.663745531629069 0 0 0
191 1 21.82209583569804 1.7998531738017096 3.1050099624970855 0 0 0
192 2 26.498633999363996 0.8999605088300966 4.663505421250592 0 0 0
193 1 24.939731648188523 1.7999116476867714 3.1047134064453674 0 0 0
194 1 28.05731469022476 1.7999078531841295 3.1044956081711526 0 0 0
195 2 29.616166044646903 0.8999564142231797 4.6633298733045825 0 0 0
196 1 31.174889550829906 1.7999084916588939 3.1043709654462144 0 0 0
197 2 32.733724070037816 0.899958394279888 4.663232704372522 0 0 0
198 1 34.29246786008345 1.7999051034512779 3.1042860136707406 0 0 0
199 1 1.5587365658078338 4.499762327537362 3.1057255959050463 0 0 0
200 1 4.676183200020499 4.499779457242788 3.10564090013156 0 0 0
202 1 7.793626636404424 4.499787744245979 3.1055247283322633 0 0 0
205 1 10.91105321784283 4.499793626081338 3.105413609989448 0 0 0
207 1 14.02847916874806 4.499773894689651 3.1053354163796127 0 0 0
209 1 17.145928317849577 4.499777554190423 3.105202807059118 0 0 0
210 1 20.263337321228917 4.499795418435464 3.105099028667216 0 0 0
212 1 23.380960241812073 4.499763331038006 3.104847310059139 0 0 0
213 2 21.822294278252105 3.599825795920399 4.663856533664901 0 0 0
214 1 26.498526301801114 4.499771804469468 3.104601587246977 0 0 0
215 2 24.93987022545896 3.5998086657852446 4.663624654789192 0 0 0
216 2 28.057407792898896 3.5998225353577737 4.663405673293233 0 0 0
217 1 29.61610306620201 4.4997729996967095 3.1044211821808614 0 0 0
218 2 31.17494272588619 3.599823100450764 4.663278251526186 0 0 0
219 1 32.73367592773452 4.499770306634274 3.1043273359063437 0 0 0
220 2 34.2925104978275 3.5998232412521705 4.663191193044678 0 0 0
223 1 3.1174638746349896 7.199646092324935 3.1056855163540567 0 0 0
225 1 6.234905287353198 7.199638785955895 3.105588076767779 0 0 0
226 1 9.352338244927513 7.199667165769995 3.1054654817047984 0 0 0
228 1 12.469766512990835 7.199644573419645 3.10537677957353 0 0 0
230 1 15.58720596698583 7.199639954215999 3.1052695003989577 0 0 0
233 1 18.704653505000127 7.199647123657035 3.105135135028084 0 0 0
234 2 23.38109138158388 6.2996859191051895 4.663745531629088 0 0 0
235 1 21.82209583569805 7.199583268946656 3.1050099624970424 0 0 0
236 2 26.498633999364067 6.299690603975102 4.663505421250608 0 0 0
237 1 24.93973164818853 7.19964174283183 3.1047134064454287 0 0 0
238 1 28.057314690224715 7.1996379483291095 3.1044956081711788 0 0 0
239 2 29.616166044646942 6.299686509368251 4.663329873304627 0 0 0
240 1 31.174889550829832 7.199638586803944 3.104370965446225 0 0 0
241 2 32.73372407003793 6.299688489424911 4.663232704372472 0 0 0
242 1 34.2924678600835 7.199635198596324 3.1042860136707153 0 0 0
243 1 1.558736565807953 9.89949242268114 3.1057255959041092 0 0 0
244 1 4.676183200021609 9.899509552388375 3.105640900132034 0 0 0
246 1 7.793626636404655 9.899517839391253 3.1055247283321865 0 0 0
249 1 10.91105321784293 9.899523721226519 3.10541360998931 0 0 0
251 1 14.02847916874806 9.899503989834752 3.1053354163796563 0 0 0
253 1 17.145928317849627 9.899507649335398 3.105202807059163 0 0 0
254 1 20.263337321228818 9.899525513580382 3.1050990286672886 0 0 0
256 1 23.38096024181198 9.899493426182998 3.104847310059082 0 0 0
257 2 21.822294278252137 8.999555891065363 4.663856533664816 0 0 0
258 1 26.498526301801153 9.89950189961441 3.104601587246996 0 0 0
259 2 24.939870225458943 8.999538760930283 4.663624654789212 0 0 0
260 2 28.057407792898914 8.999552630502786 4.663405673293262 0 0 0
261 1 29.616103066202072 9.899503094841696 3.104421182180834 0 0 0
262 2 31.174942725886037 8.99955319559586 4.663278251526229 0 0 0
263 1 32.73367592773454 9.8995004017793 3.1043273359063828 0 0 0
264 2 34.29251049782738 8.999553336397186 4.663191193044643 0 0 0
267 1 3.117463874635496 12.599376187470698 3.1056855163542627 0 0 0
269 1 6.234905287352833 12.599368881100828 3.1055880767675186 0 0 0
270 1 9.352338244927628 12.599397260915 3.105465481704604 0 0 0
272 1 12.469766512991084 12.599374668564714 3.105376779573483 0 0 0
274 1 15.587205966985923 12.599370049361076 3.1052695003989803 0 0 0
277 1 18.704653505000124 12.599377218802038 3.1051351350280623 0 0 0
278 2 23.38109138158398 11.699416014250174 4.66374553162901 0 0 0
279 1 21.822095835698 12.599313364091726 3.105009962497039 0 0 0
280 2 26.498633999364017 11.69942069912011 4.663505421250644 0 0 0
281 1 24.939731648188506 12.59937183797682 3.104713406445393 0 0 0
282 1 28.057314690224775 12.599368043474122 3.104495608171207 0 0 0
283 2 29.616166044646913 11.699416604513228 4.663329873304662 0 0 0
284 1 31.174889550829853 12.599368681948965 3.104370965446239 0 0 0
285 2 32.73372407003784 11.699418584570003 4.6632327043724695 0 0 0
286 1 34.29246786008343 12.599365293741277 3.104286013670689 0 0 0
287 1 1.5587365658083017 15.29922251782753 3.1057255959045236 0 0 0
288 1 4.676183200020409 15.299239647533527 3.105640900131828 0 0 0
290 1 7.793626636404424 15.299247934536435 3.105524728332122 0 0 0
293 1 10.9110532178429 15.299253816371811 3.10541360998964 0 0 0
295 1 14.028479168748097 15.29923408497953 3.105335416379613 0 0 0
297 1 17.14592831784962 15.299237744480314 3.105202807059137 0 0 0
298 1 20.263337321228796 15.299255608725552 3.1050990286672504 0 0 0
300 1 23.38096024181207 15.299223521328143 3.1048473100590956 0 0 0
301 2 21.8222942782521 14.399285986210499 4.663856533664817 0 0 0
302 1 26.498526301801114 15.299231994759506 3.104601587246986 0 0 0
303 2 24.93987022545892 14.399268856075308 4.663624654789225 0 0 0
304 2 28.057407792898896 14.399282725647828 4.663405673293252 0 0 0
305 1 29.61610306620205 15.299233189986692 3.1044211821808525 0 0 0
306 2 31.17494272588615 14.399283290740756 4.663278251526206 0 0 0
307 1 32.73367592773443 15.299230496924261 3.104327335906292 0 0 0
308 2 34.29251049782742 14.399283431542196 4.663191193044594 0 0 0
311 1 3.1174638746350194 17.999106282615077 3.1056855163545602 0 0 0
313 1 6.234905287353126 17.999098976245843 3.105588076767566 0 0 0
314 1 9.352338244927608 17.999127356060608 3.10546548170457 0 0 0
316 1 12.469766512990835 17.99910476371 3.1053767795735228 0 0 0
318 1 15.587205966985834 17.99910014450584 3.1052695003988875 0 0 0
321 1 18.704653505000042 17.999107313947096 3.1051351350280854 0 0 0
322 2 23.38109138158398 17.099146109395274 4.6637455316290595 0 0 0
323 1 21.822095835698 17.9990434592368 3.1050099624970646 0 0 0
324 2 26.49863399936394 17.099150794265114 4.663505421250639 0 0 0
325 1 24.93973164818846 17.99910193312185 3.1047134064454176 0 0 0
326 1 28.057314690224736 17.99909813861925 3.1044956081712276 0 0 0
327 2 29.61616604464704 17.099146699658213 4.6633298733046455 0 0 0
328 1 31.174889550829924 17.999098777093963 3.104370965446237 0 0 0
329 2 32.73372407003787 17.099148679714894 4.663232704372456 0 0 0
330 1 34.29246786008354 17.999095388886328 3.1042860136707247 0 0 0
331 1 1.5587365658076422 20.69895261297208 3.1057255959040173 0 0 0
332 1 4.676183200020139 20.698969742678816 3.1056409001320247 0 0 0
334 1 7.793626636404648 20.69897802968102 3.1055247283322465 0 0 0
337 1 10.911053217842666 20.69898391151711 3.1054136099896557 0 0 0
339 1 14.028479168748047 20.698964180124563 3.1053354163794964 0 0 0
341 1 17.14592831784977 20.698967839625233 3.105202807059118 0 0 0
342 1 20.263337321228835 20.698985703870473 3.1050990286673446 0 0 0
344 1 23.380960241811973 20.698953616473073 3.1048473100590583 0 0 0
345 2 21.822294278252105 19.79901608135552 4.663856533664867 0 0 0
346 1 26.498526301801103 20.698962089904573 3.1046015872469668 0 0 0
347 2 24.939870225458804 19.798998951220362 4.66362465478922 0 0 0
348 2 28.05740779289892 19.79901282079291 4.663405673293208 0 0 0
349 1 29.616103066201998 20.698963285131725 3.1044211821808294 0 0 0
350 2 31.174942725886115 19.799013385885857 4.663278251526236 0 0 0
351 1 32.73367592773437 20.69896059206936 3.104327335906362 0 0 0
352 2 34.2925104978275 19.799013526687293 4.663191193044639 0 0 0
355 1 3.117463874635332 23.398836377759427 3.105685516353803 0 0 0
357 1 6.2349052873529045 23.398829071391262 3.1055880767674915 0 0 0
358 1 9.352338244927669 23.39885745120546 3.105465481705089 0 0 0
360 1 12.469766512990134 23.39883485885527 3.1053767795735636 0 0 0
362 1 15.587205966985577 23.3988302396508 3.1052695003988195 0 0 0
365 1 18.70465350500035 23.398837409092042 3.105135135028076 0 0 0
366 2 23.38109138158403 22.498876204540334 4.66374553162905 0 0 0
367 1 21.82209583569809 23.39877355438178 3.1050099624970358 0 0 0
368 2 26.498633999363978 22.498880889410067 4.6635054212506475 0 0 0
369 1 24.93973164818859 23.398832028266852 3.104713406445402 0 0 0
370 1 28.057314690224775 23.398828233764192 3.1044956081711925 0 0 0
371 2 29.616166044646903 22.498876794803174 4.663329873304669 0 0 0
372 1 31.174889550829963 23.39882887223897 3.104370965446288 0 0 0
373 2 32.733724070038065 22.498878774859957 4.663232704372526 0 0 0
374 1 34.29246786008345 23.398825484031434 3.104286013670688 0 0 0
375 1 1.558736565808507 26.098682708117046 3.1057255959046137 0 0 0
376 1 4.676183200020978 26.098699837823645 3.1056409001316987 0 0 0
378 1 7.793626636404511 26.098708124826132 3.105524728332066 0 0 0
381 1 10.911053217842943 26.098714006662068 3.105413609989779 0 0 0
383 1 14.028479168747463 26.098694275269647 3.1053354163794493 0 0 0
385 1 17.145928317849393 26.098697934770232 3.105202807059119 0 0 0
386 1 20.263337321229017 26.098715799015558 3.105099028667333 0 0 0
388 1 23.38096024181193 26.098683711617955 3.104847310059086 0 0 0
389 2 21.822294278252205 25.19874617650047 4.6638565336649425 0 0 0
390 1 26.498526301801103 26.098692185049504 3.1046015872469668 0 0 0
391 2 24.93987022545889 25.198729046365372 4.663624654789177 0 0 0
392 2 28.057407792898825 25.198742915937835 4.663405673293196 0 0 0
393 1 29.6161030662021 26.09869338027669 3.1044211821808347 0 0 0
394 2 31.174942725886236 25.198743481030753 4.663278251526174 0 0 0
395 1 32.73367592773453 26.0986906872144 3.1043273359063197 0 0 0
396 2 34.29251049782732 25.198743621832275 4.663191193044582 0 0 0
399 1 3.11746387463526 28.798566472905115 3.1056855163537938 0 0 0
401 1 6.234905287352646 28.798559166536293 3.1055880767677624 0 0 0
402 1 9.352338244926992 28.798587546350202 3.1054654817047322 0 0 0
404 1 12.46976651299061 28.798564954000277 3.10537677957362 0 0 0
406 1 15.587205966985536 28.798560334795788 3.1052695003987485 0 0 0
409 1 18.704653505000163 28.798567504237088 3.1051351350280965 0 0 0
410 2 23.38109138158393 27.898606299685195 4.663745531629108 0 0 0
411 1 21.82209583569818 28.79850364952678 3.105009962497026 0 0 0
412 2 26.498633999363957 27.898610984555223 4.663505421250624 0 0 0
413 1 24.93973164818856 28.79856212341184 3.104713406445395 0 0 0
414 1 28.057314690224676 28.798558328909262 3.1044956081712085 0 0 0
415 2 29.616166044646903 27.898606889948205 4.663329873304608 0 0 0
416 1 31.174889550829885 28.798558967384007 3.104370965446279 0 0 0
417 2 32.73372407003793 27.898608870005024 4.66323270437249 0 0 0
418 1 34.29246786008343 28.798555579176472 3.1042860136707078 0 0 0
419 1 1.5587365658073633 31.498412803261733 3.1057255959062617 0 0 0
420 1 4.67618320002114 31.498429932967895 3.105640900131074 0 0 0
422 1 7.793626636404291 31.498438219970947 3.1055247283325587 0 0 0
424 1 10.911053217842493 31.4984441018071 3.1054136099897143 0 0 0
423 1 14.028479168747412 31.498424370414952 3.1053354163795737 0 0 0
421 1 17.145928317849283 31.498428029915303 3.105202807058902 0 0 0
408 1 20.26333732122893 31.4984458941605 3.1050990286672655 0 0 0
405 2 21.822294278252254 30.598476271645342 4.663856533664822 0 0 0
407 1 23.3809602418121 31.498413806763036 3.104847310059079 0 0 0
400 2 24.93987022545908 30.59845914151028 4.663624654789206 0 0 0
403 1 26.498526301801075 31.498422280194543 3.104601587246959 0 0 0
398 2 28.057407792898786 30.598473011082895 4.663405673293263 0 0 0
387 2 31.174942725886073 30.59847357617599 4.6632782515262585 0 0 0
397 1 29.616103066202033 31.498423475421777 3.104421182180801 0 0 0
382 2 34.2925104978274 30.598473716977384 4.663191193044657 0 0 0
384 1 32.73367592773453 31.49842078235935 3.1043273359063357 0 0 0
380 1 3.117463874634422 34.198296568050026 3.105685516354317 0 0 0
379 1 6.234905287352256 34.19828926168096 3.1055880767674218 0 0 0
377 1 9.352338244927415 34.19831764149496 3.105465481704995 0 0 0
364 1 12.469766512990061 34.198295049145 3.1053767795737075 0 0 0
363 1 15.58720596698514 34.19829042994102 3.10526950039876 0 0 0
361 1 18.704653505000262 34.19829759938211 3.1051351350280316 0 0 0
356 1 21.82209583569808 34.19823374467176 3.1050099624971277 0 0 0
359 2 23.38109138158415 33.298336394830336 4.663745531629151 0 0 0
353 1 24.939731648188587 34.19829221855696 3.104713406445381 0 0 0
354 2 26.498633999364 33.29834107970022 4.6635054212506 0 0 0
343 1 28.057314690224676 34.198288424054205 3.104495608171168 0 0 0
338 1 31.174889550829963 34.19828906252896 3.104370965446234 0 0 0
340 2 29.616166044647112 33.298336985093286 4.66332987330452 0 0 0
335 1 34.29246786008345 34.1982856743213 3.1042860136707713 0 0 0
336 2 32.73372407003813 33.298338965149924 4.663232704372483 0 0 0
333 1 1.558736565807865 36.898142898406114 3.1057255959044774 0 0 0
320 1 4.676183200021619 36.89816002811305 3.105640900131212 0 0 0
319 1 7.793626636404911 36.89816831511608 3.105524728332695 0 0 0
317 1 10.911053217842156 36.898174196951395 3.105413609989417 0 0 0
315 1 14.0284791687475 36.89815446555984 3.105335416379707 0 0 0
312 1 17.14592831784927 36.89815812506044 3.1052028070590065 0 0 0
310 1 20.263337321228896 36.89817598930563 3.105099028667247 0 0 0
299 2 21.822294278252105 35.998206366790505 4.66385653366494 0 0 0
309 1 23.380960241812108 36.89814390190807 3.104847310059121 0 0 0
294 2 24.939870225459003 35.998189236655314 4.663624654789285 0 0 0
296 1 26.498526301801093 36.89815237533953 3.104601587246969 0 0 0
292 2 28.057407792898736 35.99820310622793 4.663405673293213 0 0 0
289 2 31.174942725886194 35.99820367132087 4.66327825152623 0 0 0
291 1 29.616103066201934 36.898153570566826 3.104421182180835 0 0 0
275 2 34.29251049782732 35.998203812122256 4.663191193044743 0 0 0
276 1 32.733675927734474 36.89815087750425 3.1043273359063353 0 0 0
273 1 3.1174638746353818 39.59802666319485 3.1056855163547517 0 0 0
271 1 6.2349052873528175 39.59801935682588 3.1055880767676 0 0 0
268 1 9.352338244927477 39.59804773663994 3.105465481704601 0 0 0
266 1 12.469766512990349 39.598025144289856 3.105376779573552 0 0 0
265 1 15.587205966985477 39.59802052508621 3.1052695003989643 0 0 0
255 1 18.704653504999953 39.59802769452703 3.105135135028 0 0 0
250 1 21.82209583569804 39.59796383981675 3.105009962497056 0 0 0
252 2 23.381091381584028 38.698066489975176 4.663745531629012 0 0 0
247 1 24.939731648188644 39.59802231370191 3.104713406445388 0 0 0
248 2 26.498633999364078 38.69807117484518 4.6635054212506155 0 0 0
245 1 28.057314690224718 39.5980185191992 3.1044956081711796 0 0 0
231 1 31.174889550829985 39.59801915767413 3.1043709654462597 0 0 0
232 2 29.616166044646853 38.69806708023844 4.663329873304564 0 0 0
227 1 34.292467860083605 39.59801576946634 3.1042860136706407 0 0 0
229 2 32.73372407003804 38.69806906029498 4.663232704372459 0 0 0
224 1 1.5587365658082288 42.29787299355218 3.1057255959043975 0 0 0
222 1 4.676183200020736 42.297890123258334 3.105640900131197 0 0 0
221 1 7.79362663640506 42.29789841026133 3.1055247283326337 0 0 0
211 1 10.911053217842538 42.29790429209671 3.105413609989469 0 0 0
208 1 14.028479168747332 42.2978845607045 3.105335416379596 0 0 0
206 1 17.145928317849382 42.297888220205444 3.105202807059091 0 0 0
204 1 20.263337321228875 42.29790608445041 3.105099028667222 0 0 0
201 2 21.82229427825224 41.39793646193545 4.663856533664902 0 0 0
203 1 23.380960241812108 42.29787399705332 3.1048473100591063 0 0 0
187 2 24.93987022545896 41.39791933180049 4.663624654789183 0 0 0
188 1 26.498526301801174 42.29788247048472 3.1046015872469823 0 0 0
185 2 28.057407792898854 41.39793320137301 4.663405673293281 0 0 0
180 2 31.174942725886233 41.39793376646586 4.663278251526299 0 0 0
183 1 29.616103066202 42.297883665711915 3.1044211821808427 0 0 0
177 2 34.29251049782742 41.39793390726723 4.663191193044656 0 0 0
178 1 32.73367592773461 42.29788097264943 3.104327335906327 0 0 0
425 3 1.5587101192144346 44.09776901878367 1.5467462579374571 0 0 0
426 3 4.676132790819678 44.097784630852736 1.5466489807477624 0 0 0
427 3 7.79357071350625 44.09779266278364 1.5465413635881073 0 0 0
428 3 10.91100132404427 44.09780127347317 1.5464348850892085 0 0 0
429 3 14.02843396881695 44.097775148896574 1.5463511278685105 0 0 0
430 3 17.145860992245414 44.097788941956544 1.5462236436822154 0 0 0
431 3 20.263298399809088 44.09776575963438 1.5460821185110305 0 0 0
432 3 23.38078981692735 44.09780719489778 1.5459596024028868 0 0 0
433 3 26.498411973855294 44.097799405714326 1.5456956197447034 0 0 0
434 3 29.616034220276923 44.09780469094402 1.5455205360710267 0 0 0
435 3 32.73363301541329 44.09779985972923 1.5454248747913484 0 0 0
436 3 3.117419916173883 46.79764914991193 1.5466999133595571 0 0 0
437 3 6.2348510968416635 46.797648151962825 1.5465986713883804 0 0 0
438 3 9.35228608316898 46.79766749003381 1.5464855302832201 0 0 0
439 3 12.469722354080828 46.79764910581854 1.5463877560569141 0 0 0
440 3 15.587138251412991 46.79764563975334 1.5462939678464642 0 0 0
441 3 18.704586904474795 46.79765311872516 1.5461499652130153 0 0 0
442 3 21.822023086153212 46.797641491800185 1.5461054963705156 0 0 0