LAMMPS data file via write_data, version 21 Nov 2023, timestep = 2291, units = metal

38273 atoms
3 atom types

0 1247.016623829971 xlo xhi
0 86.39584640353051 ylo yhi
0 50 zlo zhi
0 0 0 xy xz yz

Masses

1 95.94
2 32.065
3 32.065

Atoms # atomic

38273 3 1.558767062587114 0.8999527989088857 1.5454417970412577 0 0 0
28232 3 4.676309575312756 0.899954050378601 1.5454400754421278 0 0 0
28231 3 7.793850842613534 0.8999540007955553 1.5454381450433923 0 0 0
28230 3 10.911393116374894 0.8999544219033732 1.545436501694934 0 0 0
28229 3 14.028935954927357 0.8999539354026312 1.545438017065773 0 0 0
28228 3 17.146477088697495 0.8999541297250397 1.5454391260834606 0 0 0
28227 3 20.26401956058319 0.8999548076321873 1.545439952955439 0 0 0
28226 3 23.381560082219597 0.8999546730646071 1.545440839806001 0 0 0
28225 3 26.499101164080983 0.8999546854112923 1.5454386198972612 0 0 0
28224 3 29.616644310807043 0.8999548509269129 1.5454378166849274 0 0 0
28223 3 32.73418632978353 0.8999542426816967 1.5454395572753385 0 0 0
28222 3 35.851727160310986 0.8999529366822973 1.545439198702935 0 0 0
28233 3 3.1175376838711144 3.5998234888987053 1.5454372687264681 0 0 0
28221 3 6.235081156259886 3.5998236229987244 1.545436461573282 0 0 0
28219 3 9.352622190550319 3.5998241821296295 1.5454357944638166 0 0 0
28218 3 12.470164199971112 3.599823895715135 1.5454357143644184 0 0 0
28217 3 15.587706487756162 3.5998233050385458 1.5454372577766653 0 0 0
28216 3 18.705249731399572 3.5998246027143685 1.5454395318873317 0 0 0
28215 3 21.82279032829457 3.599824988750361 1.5454427802409167 0 0 0
28214 3 24.94033026731579 3.5998255646659505 1.5454419461054598 0 0 0
28213 3 28.057872900750954 3.5998256837023423 1.5454404157526245 0 0 0
28212 3 31.175414811377017 3.599825010388614 1.545441222992426 0 0 0
28211 3 34.29295569297156 3.599824256321517 1.5454404309483065 0 0 0
28210 3 37.41049864267052 3.599824127796814 1.5454374639876745 0 0 0
28209 3 1.558767135627354 6.299695359073538 1.5454360539556746 0 0 0
28220 3 4.676309413283921 6.299696145980878 1.5454352739285109 0 0 0
28235 3 7.793851698285993 6.299696179471795 1.5454362582878511 0 0 0
28248 3 10.911392084895766 6.2996960352377185 1.5454353709187947 0 0 0
28236 3 14.02893462859712 6.299695067475542 1.545434004209793 0 0 0
28260 3 17.146479122677377 6.299695161692427 1.5454364034198436 0 0 0
28259 3 20.26402036611137 6.299695327149351 1.545442051251975 0 0 0
28258 3 23.381559333835693 6.299694825783947 1.545443034986848 0 0 0
28257 3 26.499101072359494 6.299694522098004 1.5454403403271848 0 0 0
28256 3 29.616643546120564 6.299694205930085 1.5454393765781633 0 0 0
28255 3 32.734185458173926 6.299694223172855 1.5454390869121792 0 0 0
28254 3 35.8517274430716 6.299695236182557 1.5454373620186 0 0 0
24304 2 35.85172851839133 27.898665268838517 4.663259458738927 0 0 0
28253 3 3.1175386300009142 8.999566936943909 1.5454352766001995 0 0 0
28252 3 6.235080495526284 8.999567020718686 1.54543625211536 0 0 0
28251 3 9.352622336347805 8.999567420848145 1.5454374457585136 0 0 0
28250 3 12.470162871418895 8.99956826272107 1.5454357315130738 0 0 0
28261 3 15.587706612391546 8.999568361930827 1.545434966748948 0 0 0
28249 3 18.70524863606808 8.999566198056753 1.545439352705479 0 0 0
28247 3 21.82278853897423 8.999564093685937 1.5454410979818995 0 0 0
28246 3 24.940330770339713 8.999564216517264 1.545438786537585 0 0 0
28245 3 28.057873692057623 8.999565609333747 1.54543787026572 0 0 0
28244 3 31.175415554461846 8.999567049154468 1.5454384412002469 0 0 0
28243 3 34.292956419668954 8.999567840804335 1.545438208283413 0 0 0
28242 3 37.410498782033585 8.99956786782604 1.545437172165962 0 0 0
28241 3 1.558768048224563 11.699436783627515 1.5454333212717646 0 0 0
28240 3 4.676309623421732 11.699437256466886 1.5454345256188144 0 0 0
28239 3 7.793852413537334 11.699437856996674 1.5454366636119914 0 0 0
28238 3 10.911393877936739 11.699438472987806 1.545439284310555 0 0 0
28237 3 14.028934779164013 11.6994405967181 1.5454390946963896 0 0 0
28208 3 17.14647647504157 11.699439374898015 1.5454403492328739 0 0 0
28207 3 20.264016545017256 11.699436709973815 1.5454402681565975 0 0 0
28206 3 23.381559823940908 11.699436261732009 1.5454378011028886 0 0 0
28192 3 26.49910333789047 11.699437315679745 1.5454379180231226 0 0 0
28176 3 29.616646168158518 11.699438726405727 1.5454402313567182 0 0 0
28175 3 32.734186370660694 11.699439649945536 1.5454415756196704 0 0 0
28174 3 35.85172635852238 11.699439332738642 1.5454389830553243 0 0 0
28173 3 3.11753873888578 14.399308803661507 1.5454336347890079 0 0 0
28172 3 6.235081433977922 14.399309139815232 1.545435447241148 0 0 0
28171 3 9.352623719578338 14.399308918987677 1.545438930510959 0 0 0
28170 3 12.470164357674648 14.399309279011485 1.5454414247597006 0 0 0
28169 3 15.587705200686509 14.399309146297158 1.5454425836979888 0 0 0
28168 3 18.705245221966 14.39930816872849 1.5454419088769598 0 0 0
28167 3 21.82278843313323 14.399308676267921 1.5454389889782147 0 0 0
28166 3 24.940331777471688 14.399308811031016 1.545438609849772 0 0 0
28165 3 28.05787451010077 14.399308581513377 1.5454395241542493 0 0 0
28164 3 31.175418009801266 14.399308705814136 1.5454421589141596 0 0 0
28163 3 34.29295689267911 14.399310392052968 1.5454420998689684 0 0 0
28162 3 37.410498301979224 14.399311603545348 1.545438079924096 0 0 0
28161 3 1.5587675746242085 17.099181518410283 1.5454353114748354 0 0 0
28160 3 4.67630972545744 17.099181236739025 1.5454368012735686 0 0 0
28159 3 7.793852296074583 17.09918037109653 1.5454388309170544 0 0 0
28158 3 10.911393712931632 17.099179764937706 1.5454412840764309 0 0 0
28157 3 14.028933376884384 17.099178768779495 1.5454419911471042 0 0 0
28156 3 17.146474191730107 17.099177414724025 1.5454405108881866 0 0 0
28155 3 20.264016827557544 17.099177715970963 1.5454379365293731 0 0 0
28154 3 23.381560629826353 17.099178372838566 1.5454373049837185 0 0 0
28177 3 26.499102482800446 17.0991781419982 1.545436846631068 0 0 0
28178 3 29.61664698861394 17.099178719428394 1.5454367693404518 0 0 0
28179 3 32.73419022430233 17.09917971961817 1.5454407329833788 0 0 0
28180 3 35.851729597651165 17.099182805016532 1.5454423020916839 0 0 0
23649 2 32.734188394176506 27.89866623378901 4.6632531740038985 0 0 0
23632 2 29.616646597489787 27.89866550849668 4.663249222610565 0 0 0
28204 3 3.1175380615334545 19.799052582380863 1.5454403909173218 0 0 0
28203 3 6.23508018388456 19.79905192742236 1.5454409816642563 0 0 0
28202 3 9.352622097362465 19.799051364804864 1.5454411674108477 0 0 0
28201 3 12.470163506797386 19.799050208498436 1.5454422976537907 0 0 0
28200 3 15.587702502068758 19.79904950091265 1.5454406591044463 0 0 0
28199 3 18.705245165762626 19.79904946502456 1.5454364455905196 0 0 0
28198 3 21.822788838727025 19.7990497312024 1.5454348164359009 0 0 0
28197 3 24.940332455733365 19.79904954633522 1.54543487201351 0 0 0
28196 3 28.057876002847568 19.799051468549745 1.5454345582365603 0 0 0
28195 3 31.175419326913985 19.799051945536043 1.5454366851878893 0 0 0
28194 3 34.29296228156653 19.79905277409025 1.5454430758941338 0 0 0
28205 3 37.41050047556406 19.79905544489524 1.5454449739266096 0 0 0
28193 3 1.5587681120270398 22.4989252036886 1.5454440871253925 0 0 0
28191 3 4.676308643528149 22.498924682465763 1.5454439585015347 0 0 0
28190 3 7.793849895833921 22.49892472464833 1.545444106977138 0 0 0
28189 3 10.911391355557829 22.498924387519654 1.5454442155392802 0 0 0
28188 3 14.028933005741267 22.498922092169845 1.5454437057234403 0 0 0
28187 3 17.146473545509703 22.498922255866095 1.5454402033791064 0 0 0
28186 3 20.264017269545644 22.4989221854332 1.5454364750537264 0 0 0
28185 3 23.38156093127475 22.498922625575847 1.545435898877407 0 0 0
28184 3 26.499105401818202 22.498923182464214 1.545437105050156 0 0 0
28183 3 29.616647513541785 22.4989240762044 1.5454385675437876 0 0 0
28182 3 32.734191291941414 22.49892383771213 1.5454420525761687 0 0 0
28181 3 35.8517341576698 22.498924966662795 1.5454487575835854 0 0 0
23684 2 26.499105197224235 27.898665387857957 4.663249347909078 0 0 0
28234 3 3.1175397691794284 25.198799863055488 1.5454518141369644 0 0 0
28262 3 6.235077862020078 25.198800180235377 1.5454512781316356 0 0 0
28263 3 9.352618986283684 25.19879967978706 1.5454510120522293 0 0 0
28264 3 12.470158939927735 25.19879617388955 1.54544988940339 0 0 0
28344 3 15.587701440683455 25.198794040036322 1.5454460749735992 0 0 0
28343 3 18.705245011089577 25.19879283280918 1.5454404352732698 0 0 0
28342 3 21.822789834710402 25.198792743115952 1.5454379122235549 0 0 0
28341 3 24.940333128579386 25.198793142065405 1.5454387378661412 0 0 0
28340 3 28.057875906851827 25.198792164663136 1.545439760166421 0 0 0
28339 3 31.17541993714672 25.19879245130258 1.5454411958864656 0 0 0
28338 3 34.29296470301467 25.19879284130068 1.5454460160772474 0 0 0
28337 3 37.41050786604862 25.198795291176953 1.545452758256787 0 0 0
28336 3 1.5587771705909408 27.89867757339449 1.5454627459481354 0 0 0
28335 3 4.67630917094018 27.898674410083988 1.545464670112828 0 0 0
28334 3 7.7938428762142085 27.898679303971612 1.5454623830140788 0 0 0
28345 3 10.91138590428945 27.89866928880567 1.5454592511415166 0 0 0
28333 3 14.028927907263304 27.89866512179321 1.5454520355392667 0 0 0
28331 3 17.146471096623763 27.898662710509747 1.5454442213450044 0 0 0
28330 3 20.264017437503547 27.89866219053941 1.5454384612793202 0 0 0
28329 3 23.38156135968818 27.898661887934473 1.5454373273457578 0 0 0
28328 3 26.499103629799627 27.898661175612812 1.5454366437847153 0 0 0
28327 3 29.6166484126516 27.898661456763147 1.5454366335838376 0 0 0
28326 3 32.73419251489334 27.89866142492318 1.5454394520311183 0 0 0
28325 3 35.85173871521997 27.89866369318268 1.5454468740311416 0 0 0
23682 2 23.38156208730572 27.898663855259933 4.663250150278661 0 0 0
23846 2 1.5587690361012358 0.8999565990165032 4.663255271774849 0 0 0
8905 1 3.1175389877937874 1.799911573305203 3.104346464347072 0 0 0
23845 2 4.676310704949987 0.8999553738389534 4.663253253631429 0 0 0
8906 1 6.235080848094104 1.799911443690982 3.1043452920150045 0 0 0
23844 2 7.7938525504332254 0.8999550285473238 4.663250912814081 0 0 0
8908 1 9.35262242951426 1.7999113487812515 3.104342978788787 0 0 0
8910 1 12.470163970891132 1.7999109967062183 3.104342785410439 0 0 0
23843 2 10.91139303281945 0.8999542379467483 4.663249357746722 0 0 0
8912 1 15.587705874961497 1.7999108752766495 3.10434496349008 0 0 0
23842 2 14.028933726549782 0.8999543509537526 4.663250909874221 0 0 0
23711 2 17.14647669380354 0.8999538785798824 4.66325198943633 0 0 0
8914 1 18.70524779916275 1.799910829735701 3.104345765461428 0 0 0
23710 2 20.264017707467005 0.8999531531653039 4.66325287817016 0 0 0
8892 1 21.822789512224258 1.7999108144587825 3.1043479493915407 0 0 0
23709 2 23.38156082561502 0.8999533716395327 4.663253707428673 0 0 0
8891 1 24.940331299119187 1.7999108882431216 3.104346839207517 0 0 0
8867 1 28.057873077563897 1.7999106435346206 3.1043446774769787 0 0 0
23606 2 26.499103145772683 0.8999527702542348 4.6632514256059014 0 0 0
8869 1 31.175414900126356 1.7999103316872953 3.104345815066403 0 0 0
23577 2 29.616643468676543 0.8999515613241955 4.663250600452172 0 0 0
23576 2 32.734185669251765 0.8999517776733735 4.663252170502532 0 0 0
8872 1 34.29295719764647 1.799910325763309 3.104346626346085 0 0 0
23575 2 35.85172968505725 0.8999528078685354 4.663251798699454 0 0 0
8873 1 37.4104997558904 1.7999100482004027 3.1043441693079568 0 0 0
8874 1 1.5587674395006794 4.49978234601324 3.104343907016243 0 0 0
23660 2 20.26402025807749 27.898662770726656 4.663251308208038 0 0 0
8875 1 4.676309750703648 4.499782175911423 3.10434180138419 0 0 0
23574 2 3.11753955486799 3.599827740582622 4.663250013297848 0 0 0
23573 2 6.235080596097193 3.599826678501812 4.66324919491797 0 0 0
8878 1 7.793851838081613 4.499781995358116 3.104342212798779 0 0 0
23572 2 9.352622900982526 3.5998255389850176 4.663248803812262 0 0 0
8880 1 10.911393217178166 4.499781877186901 3.104341768784538 0 0 0
23571 2 12.470163551606722 3.599825300882376 4.6632485610540835 0 0 0
8881 1 14.02893475529921 4.499781836060321 3.1043419603958493 0 0 0
23570 2 15.58770505726944 3.599826004625923 4.663249959432518 0 0 0
8883 1 17.14647676876708 4.49978168297565 3.104343556645569 0 0 0
8884 1 20.264018591576388 4.499781663934025 3.1043480945443984 0 0 0
23569 2 18.705245775446713 3.5998244337889274 4.663252315862276 0 0 0
23568 2 21.82278871878354 3.5998241192903624 4.663255502016577 0 0 0
8886 1 23.381560374102175 4.4997816988516535 3.104349646028297 0 0 0
23578 2 24.940332161953027 3.5998237182030084 4.663254749738945 0 0 0
8890 1 26.499102102293236 4.499781607536989 3.1043474762607315 0 0 0
23567 2 28.057872996344326 3.5998233719224166 4.663253206629331 0 0 0
8917 1 29.616643839020718 4.499781656102163 3.104347390257083 0 0 0
23565 2 31.175414638553946 3.5998237839807197 4.663253961908536 0 0 0
8945 1 32.73418577419562 4.499781784188208 3.104347641454795 0 0 0
8946 1 35.851728252650624 4.499781664301661 3.104344836205928 0 0 0
23564 2 34.29295821798358 3.599824908609524 4.6632531308586165 0 0 0
23563 2 37.41050051784112 3.599824514701603 4.663250110359402 0 0 0
23561 2 1.5587675406506178 6.299696844497611 4.66324876972091 0 0 0
8951 1 3.1175383216669923 7.199653210960434 3.104341687535047 0 0 0
23560 2 4.6763091237589425 6.299695699111404 4.663248031786766 0 0 0
8952 1 6.235080308898396 7.199652919374128 3.1043421147420878 0 0 0
23559 2 7.793851258521707 6.299695432950738 4.663249019372352 0 0 0
8954 1 9.35262226160465 7.199653052999636 3.1043431980528053 0 0 0
8955 1 12.470163934892724 7.199653092398235 3.104341015758419 0 0 0
23558 2 10.91139418279499 6.299695471290845 4.663248152441072 0 0 0
23557 2 14.028934947383963 6.299696656972501 4.663246758677412 0 0 0
8957 1 15.587705731314761 7.19965289131221 3.104340308472105 0 0 0
23556 2 17.146473969909824 6.299695982773482 4.663249248777853 0 0 0
8960 1 18.705247447474147 7.199652502677273 3.104345894797127 0 0 0
23566 2 20.264016513264327 6.299695673545232 4.663254904159264 0 0 0
8961 1 21.82278946535678 7.1996521859043385 3.104349752320544 0 0 0
23579 2 23.38156156285822 6.299696040466488 4.663255972648045 0 0 0
8963 1 24.940331373086213 7.199652134041003 3.1043475319137808 0 0 0
8965 1 28.057873017655666 7.19965229687062 3.104345381508316 0 0 0
23580 2 26.49910333552308 6.299696093685073 4.663253291087821 0 0 0
8967 1 31.175414763985952 7.199652750363924 3.1043448855685085 0 0 0
23581 2 29.616644221308654 6.299696812721253 4.663252278871038 0 0 0
23604 2 32.73418611470563 6.299697580748835 4.663251833457977 0 0 0
8942 1 34.29295687764214 7.1996531451227925 3.104344171778293 0 0 0
23603 2 35.851728501679055 6.299696471816179 4.663250054156756 0 0 0
8929 1 37.41049937756905 7.199652869189153 3.1043429800253115 0 0 0
23661 2 17.146479350176683 27.89866282591267 4.6632573199502385 0 0 0
8919 1 1.5587674019520552 9.899524035850478 3.104340673296398 0 0 0
8920 1 4.676309049867662 9.899524181748298 3.104341900164883 0 0 0
23602 2 3.117537851171284 8.999567400403707 4.663248109048576 0 0 0
8921 1 7.79385088181693 9.899524006035403 3.1043433904534083 0 0 0
23601 2 6.235079238187113 8.999566868675046 4.663248965276338 0 0 0
23600 2 9.352621494972752 8.999566523053474 4.663250275621457 0 0 0
8924 1 10.911392957227212 9.899523928516768 3.1043444037585246 0 0 0
23599 2 12.470165017154075 8.999565726814732 4.663248586749275 0 0 0
8926 1 14.028934816054297 9.899524005858648 3.104342178323767 0 0 0
23598 2 15.587704652143225 8.99956514996831 4.663247832324916 0 0 0
8928 1 17.146476456817012 9.89952365300641 3.1043442880712013 0 0 0
8930 1 20.264018291338193 9.899522958215732 3.1043470316828015 0 0 0
23597 2 18.705245735252326 8.999566328545685 4.663252208695299 0 0 0
8931 1 23.38156033837129 9.899522735102188 3.1043451826333217 0 0 0
23596 2 21.822790057196272 8.999567514012984 4.663253978653543 0 0 0
23595 2 24.94033196404058 8.999567261627424 4.6632516642884445 0 0 0
8934 1 26.499102295388425 9.899522902079793 3.104343882206825 0 0 0
23594 2 28.057872845693176 8.999566370030058 4.663250746830747 0 0 0
8935 1 29.616644160692854 9.899523367385834 3.1043449095482565 0 0 0
23593 2 31.17541473993847 8.999566152071944 4.663251260422356 0 0 0
8937 1 32.734186056536174 9.899524192034436 3.1043459190252194 0 0 0
8938 1 35.85172813114006 9.89952452691308 3.104344390004166 0 0 0
23592 2 34.2929576093515 8.999566550621099 4.66325099613474 0 0 0
23591 2 37.41049990748252 8.99956652611286 4.663249739806377 0 0 0
23590 2 1.5587668130805843 11.69943849991927 4.663246211441068 0 0 0
23663 2 14.028937088874951 27.898660731970384 4.663264959495979 0 0 0
9076 1 3.1175381666946884 12.599394762712409 3.104340124101539 0 0 0
23589 2 4.6763084734153235 11.699438556463322 4.6632474721684325 0 0 0
9208 1 6.235079955204659 12.599394725054655 3.104341337576098 0 0 0
23588 2 7.793849266210667 11.69943784166089 4.663249506510294 0 0 0
9210 1 9.352621952185588 12.59939470682122 3.104344618922781 0 0 0
9212 1 12.47016374277079 12.599394953265861 3.1043465922117965 0 0 0
23587 2 10.911392092765878 11.699436987040364 4.663252064344779 0 0 0
9214 1 15.58770530317725 12.599394720426213 3.104347489143682 0 0 0
23586 2 14.028934294816207 11.699435051458284 4.6632519184933665 0 0 0
23585 2 17.146475610659568 11.699435521099094 4.663253217462941 0 0 0
9217 1 18.705246926925224 12.59939444549347 3.1043481375070954 0 0 0
23584 2 20.26401931569163 11.699437198925082 4.6632529447782645 0 0 0
9219 1 21.82278912144795 12.599394111757926 3.104344862004939 0 0 0
23583 2 23.381560698074736 11.699437228337365 4.663250476188511 0 0 0
9220 1 24.940331404512865 12.599394166952347 3.104343932231263 0 0 0
9222 1 28.057873704340366 12.599394501699468 3.1043458320630197 0 0 0
23582 2 26.499101759303098 11.699436512548099 4.663250585027507 0 0 0
23555 2 29.616643504597015 11.699436021883521 4.663252941124672 0 0 0
9224 1 31.175415820926343 12.599395177434735 3.1043487632278404 0 0 0
23554 2 32.734187312812765 11.69943685616683 4.663254332512763 0 0 0
9226 1 34.292957550129316 12.599396073497356 3.1043475738839637 0 0 0
23553 2 35.851730396226706 11.699438212958203 4.66325163393169 0 0 0
9227 1 37.41049948810798 12.599396374826318 3.104343324236435 0 0 0
23666 2 10.91139247510758 27.898658993263762 4.6632720174366336 0 0 0
9228 1 1.55876694734243 15.299265960460023 3.104339625843817 0 0 0
23668 2 7.7938466796579835 27.89865922122933 4.663275604200524 0 0 0
9229 1 4.676309168696811 15.299265555964421 3.104341397464925 0 0 0
23527 2 3.117537170830455 14.399308346864766 4.663246306677933 0 0 0
23525 2 6.235079068139495 14.399307691925664 4.663248177814697 0 0 0
9218 1 7.793851190143014 15.299265582146985 3.104343908620701 0 0 0
23524 2 9.352620578410614 14.399308267943038 4.663251612580956 0 0 0
9182 1 10.91139298261657 15.29926566966649 3.104347212941239 0 0 0
23523 2 12.470162910792066 14.399308061830494 4.6632543766450745 0 0 0
9184 1 14.028934209123125 15.299265598744489 3.1043486592225524 0 0 0
23522 2 15.587704529459588 14.399307742886256 4.663255485604575 0 0 0
9186 1 17.14647551866373 15.299265484323955 3.1043487534916063 0 0 0
9187 1 20.264017656527766 15.299265320080778 3.104346299329553 0 0 0
23521 2 18.705247508902957 14.399308731034575 4.663254703961212 0 0 0
9188 1 23.381560375721843 15.299265480374512 3.104345160631584 0 0 0
23520 2 21.822789670213776 14.399307993707334 4.663251662499611 0 0 0
23519 2 24.940331541399527 14.399307978567576 4.663251324009064 0 0 0
9191 1 26.49910290428469 15.299265723644947 3.104345350278062 0 0 0
23518 2 28.05787393893673 14.399309035273513 4.663252173481865 0 0 0
9204 1 29.616645421693555 15.299266449014338 3.1043457705043664 0 0 0
23517 2 31.1754151792572 14.399310103291377 4.6632548210502 0 0 0
9195 1 32.73418734268907 15.299267192941137 3.104348795866854 0 0 0
9196 1 35.85172891636151 15.299267770284406 3.104347348403698 0 0 0
23516 2 34.29295930157185 14.399309929804687 4.663254939586718 0 0 0
23526 2 37.41050139105685 14.399309851577335 4.663250708477841 0 0 0
23674 2 34.29295829425557 25.198794235819765 4.663259159978801 0 0 0
23515 2 1.5587658230907648 17.09917799291856 4.663248288717504 0 0 0
9201 1 3.117538015691601 17.999136453167765 3.1043442572379303 0 0 0
23513 2 4.676308582962793 17.099177327812345 4.663250036317599 0 0 0
9202 1 6.235080208283693 17.999136236892852 3.1043455446036026 0 0 0
23511 2 7.79385025334425 17.09917813791122 4.663251922355143 0 0 0
9205 1 9.352622090218079 17.999136567427037 3.104347010068004 0 0 0
9231 1 12.470163488690991 17.99913654619359 3.1043489406818963 0 0 0
23510 2 10.911392481081883 17.09917886722754 4.663254127326886 0 0 0
23509 2 14.028934374532701 17.099179668738778 4.663254875594798 0 0 0
9233 1 15.58770462293365 17.999136027079945 3.104347620862802 0 0 0
23508 2 17.146476686749953 17.099180843739912 4.663253448650458 0 0 0
9262 1 18.70524644367547 17.999136102304767 3.1043438930362335 0 0 0
23507 2 20.26401848775128 17.099180961913667 4.663250599435457 0 0 0
9263 1 21.822789068112485 17.99913632689452 3.104342500311335 0 0 0
23506 2 23.38156041494201 17.099180711170575 4.663250082967033 0 0 0
9265 1 24.94033186646434 17.999136471773014 3.104343061226857 0 0 0
9267 1 28.057874536575845 17.999137167559773 3.104341224314314 0 0 0
23505 2 26.49910396303035 17.099181482695226 4.663249615827854 0 0 0
23504 2 29.616644956681238 17.099182616302677 4.6632494145652075 0 0 0
9269 1 31.175416992480695 17.999137904777598 3.1043433648592176 0 0 0
23514 2 32.734185577773005 17.099182510565544 4.663253595520346 0 0 0
9272 1 34.292958691618985 17.999138500717518 3.104349198320804 0 0 0
23528 2 35.85172954408733 17.099180778262784 4.6632549922414945 0 0 0
9273 1 37.41050050771273 17.999139508937688 3.104348827685734 0 0 0
9274 1 1.5587667227796536 20.699007775419705 3.1043469473213863 0 0 0
9275 1 4.676308869333419 20.699007764789933 3.1043479025851917 0 0 0
23540 2 3.117537249016343 19.799048408241326 4.663253352485828 0 0 0
23529 2 6.235079909212392 19.799048603374278 4.663253930895633 0 0 0
9277 1 7.793851010717024 20.699007643703652 3.104348244208039 0 0 0
23551 2 9.352621455393573 19.799049354545236 4.663254707963929 0 0 0
9279 1 10.91139234100892 20.699007591579043 3.1043485436812093 0 0 0
23550 2 12.470162950364555 19.799049770769816 4.663255618839052 0 0 0
9281 1 14.028933712897052 20.699007216437597 3.10434897373663 0 0 0
23549 2 15.587706623577322 19.79904991476031 4.663253384456613 0 0 0
9259 1 17.14647558091427 20.699006770735178 3.1043451288336406 0 0 0
9258 1 20.26401783333839 20.699007031100432 3.1043413470411543 0 0 0
23548 2 18.705248195390524 19.79905033232939 4.663249228321245 0 0 0
23547 2 21.822789493190974 19.799050988588615 4.663247474565458 0 0 0
9244 1 23.38156073398034 20.699007228037324 3.104340754474431 0 0 0
23546 2 24.940332140672375 19.799051267608636 4.663247613932386 0 0 0
9236 1 26.499103819475398 20.69900746383957 3.104341070805121 0 0 0
23545 2 28.057874801939345 19.79905083404957 4.663247242512829 0 0 0
9238 1 29.616646519956777 20.6990082021097 3.104342147893611 0 0 0
23544 2 31.175415591700943 19.79905116422669 4.6632496181837295 0 0 0
9240 1 32.734188390971795 20.69900862734772 3.1043465209356262 0 0 0
9241 1 35.85173054001452 20.69900959624724 3.104353024335742 0 0 0
23543 2 34.292956400347734 19.799051545914466 4.663256081443679 0 0 0
23542 2 37.410502331468905 19.79905085095127 4.663258740253097 0 0 0
23671 2 4.6763097186467455 27.89865648875823 4.663280679912911 0 0 0
23552 2 1.558766875975863 22.498918927557757 4.663256656875943 0 0 0
23672 2 1.5587715071107529 27.89865823722258 4.663276062604541 0 0 0
9246 1 3.1175383847034084 23.398879606774756 3.104352434419773 0 0 0
23541 2 4.6763089374724895 22.49891944790729 4.663256882807357 0 0 0
9247 1 6.235079256657658 23.398879708672567 3.1043521204037146 0 0 0
23539 2 7.793850452146591 22.498919473811114 4.663256646516204 0 0 0
9249 1 9.352620558768866 23.398880045318567 3.104351760567795 0 0 0
9251 1 12.470162740324167 23.398878462846568 3.1043522569107247 0 0 0
23538 2 10.911391545601047 22.498919736274146 4.663257252869902 0 0 0
23537 2 14.028933652513192 22.49891964500483 4.663257404919612 0 0 0
9253 1 15.58770429183122 23.398877918051237 3.104350044533279 0 0 0
23536 2 17.146477910287963 22.498919063890565 4.663253030123759 0 0 0
9181 1 18.7052469264261 23.398877773480244 3.104345326198848 0 0 0
23535 2 20.264019043302003 22.498919592512408 4.663249255187142 0 0 0
9283 1 21.822789357022163 23.39887813170072 3.1043431451929306 0 0 0
23534 2 23.38156069604074 22.498920115699104 4.663248409118276 0 0 0
9178 1 24.940332649053573 23.39887823382073 3.104343202932708 0 0 0
9103 1 28.057875746929074 23.398878538587216 3.104345662063649 0 0 0
23533 2 26.49910344960823 22.498919756441914 4.663249711930523 0 0 0
23532 2 29.616646313921834 22.498919661241814 4.663251452643037 0 0 0
9105 1 31.175418016999895 23.398878901131884 3.1043474067504118 0 0 0
23531 2 32.734186560037124 22.49892049545394 4.66325523673185 0 0 0
9108 1 34.29296023577343 23.398879597323894 3.1043529321258534 0 0 0
23530 2 35.851729186998405 22.498922041509097 4.663261963599526 0 0 0
9109 1 37.41050233782233 23.39888113224894 3.1043579145240345 0 0 0
9110 1 1.558769478188885 26.09875309917921 3.1043606707164337 0 0 0
23673 2 37.410499530947966 25.198794070914715 4.663265697439709 0 0 0
9111 1 4.6763089194958685 26.098752044672985 3.1043625873626204 0 0 0
23605 2 3.1175381797622452 25.198787159071856 4.6632644031044785 0 0 0
9114 1 7.793848403196357 26.098754119444042 3.104360247856535 0 0 0
23607 2 6.235079889340206 25.19878737151558 4.663263830001058 0 0 0
23708 2 9.352619386274371 25.19878962333456 4.663263230810898 0 0 0
9116 1 10.911390607168508 26.098750492762264 3.104360159074343 0 0 0
23608 2 12.47016438496844 25.19878920460291 4.66326247361915 0 0 0
9117 1 14.028932981411975 26.098749312164127 3.1043556218423665 0 0 0
23680 2 15.587706431442374 25.198790207299616 4.663259168248791 0 0 0
9119 1 17.14647562504823 26.098748700068146 3.1043507047414893 0 0 0
9120 1 20.264018475674053 26.098748659131434 3.104345381522481 0 0 0
23679 2 18.70524954350797 25.19879050081997 4.663253512942364 0 0 0
23678 2 21.822789868352185 25.198791394318476 4.663250708148495 0 0 0
9122 1 23.38156118621212 26.098749046518257 3.1043446745254517 0 0 0
23677 2 24.94033225015539 25.198791743308742 4.663251253782614 0 0 0
9102 1 26.499104320565415 26.098749282325727 3.1043450524996126 0 0 0
23676 2 28.057875735238422 25.198792789501965 4.663252465997888 0 0 0
9113 1 29.616647202767123 26.09874949906709 3.104346243076601 0 0 0
23675 2 31.175417061556438 25.198793027912245 4.663254032401418 0 0 0
9087 1 32.73418999682161 26.098750066598317 3.104348682827945 0 0 0
9077 1 35.85173257670905 26.098750626365856 3.1043546901125145 0 0 0
28451 3 1.011749488561605e-07 25.198798229072437 1.5454507090477292 1 0 0
28601 3 1.576296962888655e-05 30.598539283100717 1.545471822750108 1 0 0
27985 3 3.1175659940720943 30.598565492980867 1.5455039331036635 0 0 0
27984 3 6.235054405145388 30.598566704258744 1.5455035933027914 0 0 0
27983 3 9.352606859944913 30.59854229922726 1.5454742653022642 0 0 0
27969 3 12.47015327488993 30.59853547918236 1.5454609943199127 0 0 0
27953 3 15.587696768103116 30.59853339737238 1.5454483498473415 0 0 0
27952 3 18.70524558727793 30.59853195987793 1.5454386410263488 0 0 0
27951 3 21.822789599542073 30.598532768527946 1.5454367609608266 0 0 0
27950 3 24.940331701234335 30.59853220347554 1.5454344682021057 0 0 0
27949 3 28.05787684686126 30.598533319561543 1.545432956115461 0 0 0
27948 3 31.175420373721543 30.598533339498125 1.5454354212373718 0 0 0
27947 3 34.29296571369821 30.598533380216047 1.545439817336967 0 0 0
27946 3 37.41051165518937 30.5985326596882 1.5454477444241899 0 0 0
27945 3 1.558814307901174 33.298406265544685 1.5455050950445028 0 0 0
27944 3 4.676310972655172 33.298401660593576 1.5453967388093603 0 0 0
27943 3 7.79380959687609 33.29840826297672 1.545506870250827 0 0 0
27942 3 10.911373686865213 33.29840119321781 1.5454680540522798 0 0 0
27941 3 14.028924262930694 33.29840056896946 1.545453721987506 0 0 0
27940 3 17.146471853309013 33.29840272445884 1.5454417990034388 0 0 0
27939 3 20.264018665100124 33.29840310782802 1.5454385452226338 0 0 0
27938 3 23.38156014488653 33.29840331951792 1.5454362870706142 0 0 0
27937 3 26.499105017444748 33.298404288692865 1.5454326757117678 0 0 0
27936 3 29.616648987478822 33.298403887209716 1.5454339766590477 0 0 0
27935 3 32.734191756450656 33.298403857398775 1.5454362273211422 0 0 0
27934 3 35.85173721103294 33.29840333407218 1.5454409030519427 0 0 0
28683 3 1.2538388402718673e-05 35.998263010513625 1.5454655550797671 1 0 0
27933 3 3.117557909459567 35.99822971004131 1.5455066472714976 0 0 0
27932 3 6.23506542597447 35.99823043384514 1.5455078037347583 0 0 0
27931 3 9.352611386998984 35.99826372571786 1.5454714316259448 0 0 0
27954 3 12.47015409485425 35.99826733342479 1.5454564328826594 0 0 0
27955 3 15.587701395305578 35.998270396290195 1.5454452607317344 0 0 0
27956 3 18.70524666384996 35.99827206283532 1.5454402818117985 0 0 0
27957 3 21.82278937096805 35.99827124281974 1.5454377953803886 0 0 0
27981 3 24.940333139348944 35.9982726309707 1.54543325337276 0 0 0
27980 3 28.057877657659407 35.99827366202989 1.5454328417096332 0 0 0
27979 3 31.175419463454855 35.9982731819145 1.5454345029742702 0 0 0
27978 3 34.29296372626392 35.99827409351499 1.5454372749806424 0 0 0
27977 3 37.41050686360264 35.99827273797524 1.54544226636102 0 0 0
27976 3 1.558782055442642 38.69812328349189 1.545464891203476 0 0 0
27975 3 4.676310919071188 38.69812039508745 1.5454761583953092 0 0 0
27974 3 7.793841237164034 38.698121885162905 1.5454668469630624 0 0 0
27973 3 10.911386111470714 38.69813152377317 1.5454545582268955 0 0 0
27972 3 14.028931816521554 38.69813738151139 1.545444110045385 0 0 0
27971 3 17.14647635776171 38.69813986171721 1.5454402542337617 0 0 0
27982 3 20.264018833652703 38.698140116407515 1.545436351757884 0 0 0