LAMMPS data file via write_data, version 21 Nov 2023, timestep = 439, units = metal

38088 atoms
3 atom types

0 1247.0159878934883 xlo xhi
0 86.39580218962845 ylo yhi
0 50 zlo zhi
0 0 0 xy xz yz

Masses

1 95.94
2 32.065
3 32.065

Atoms # atomic

38088 3 1.5587679210441545 0.8999575648644023 1.5454360662471933 0 0 0
28047 3 4.676306799630605 0.8999596997997679 1.545436951873549 0 0 0
28046 3 7.793844931593585 0.8999594670235913 1.5454370718147492 0 0 0
28045 3 10.911384064005361 0.8999592237366247 1.545431663144454 0 0 0
28044 3 14.028929224077364 0.8999595268071277 1.5454268720988036 0 0 0
28043 3 17.14647547072289 0.8999567333345952 1.5454321151802097 0 0 0
28042 3 20.264021915790362 0.899952384380585 1.545447521600903 0 0 0
28041 3 23.38156810425443 0.8999466448347208 1.5454665727709647 0 0 0
28040 3 26.499116767258723 0.8999282715747484 1.5454949190004525 0 0 0
28039 3 29.61665216816677 0.8998926617570185 1.5455512758961523 0 0 0
28038 3 32.73414897602604 0.8999012155163276 1.5455517533683205 0 0 0
28037 3 35.85169694534694 0.8999473049068147 1.5455053674270904 0 0 0
16028 2 1.0115413419260994e-06 25.198777850080774 4.6632498698432245 1 0 0
28048 3 3.117535656045543 3.59983595320937 1.5454479624762514 0 0 0
28036 3 6.235073052252649 3.599834928186083 1.5454483555836642 0 0 0
28034 3 9.352611951778162 3.599831813024017 1.5454442409900662 0 0 0
28033 3 12.470153540258096 3.599830517976384 1.5454349199377335 0 0 0
28032 3 15.587699823947327 3.599827351921973 1.5454304544225175 0 0 0
28031 3 18.705244713264126 3.599822793149827 1.5454335851790764 0 0 0
28030 3 21.822789495026292 3.599817207934545 1.5454439826865543 0 0 0
28029 3 24.94033328768147 3.599807467696211 1.5454581531931622 0 0 0
28028 3 28.057875597219738 3.5997913673760498 1.5454788837132802 0 0 0
28027 3 31.17540352063416 3.599787404858282 1.5454942651424752 0 0 0
28026 3 34.29293402884747 3.599793828198758 1.545488809167477 0 0 0
28025 3 37.41048911023802 3.5998138769680144 1.545480493140495 0 0 0
28024 3 1.5587685332284305 6.299712375972861 1.545468763548532 0 0 0
28035 3 4.67629663982659 6.299714206052151 1.5454674905174601 0 0 0
28050 3 7.7938391535298495 6.299703455037871 1.5454606985332142 0 0 0
28063 3 10.911378388093615 6.299700738004196 1.5454484944028113 0 0 0
28051 3 14.028922189251793 6.299697279614296 1.5454333666756868 0 0 0
28075 3 17.14646911097526 6.299692526407232 1.545425464454122 0 0 0
28074 3 20.264014187240928 6.299689721975965 1.5454256873773742 0 0 0
28073 3 23.38155788140932 6.299684262822254 1.5454321173712229 0 0 0
28072 3 26.499099383582312 6.299677071198047 1.5454422007988085 0 0 0
28071 3 29.616635694552784 6.299671936629597 1.5454543442135282 0 0 0
28070 3 32.73417113203462 6.299671776387585 1.5454586471253935 0 0 0
28069 3 35.851711003532415 6.299676086616028 1.545455684399144 0 0 0
8827 1 34.29292654363485 28.798586497299336 3.1044226302040987 0 0 0
28068 3 3.1175112573429855 8.999599911005827 1.5455124045585837 0 0 0
28067 3 6.235059285332176 8.999574631526057 1.5454777247658358 0 0 0
28066 3 9.352606322935598 8.999567307048569 1.545459887205523 0 0 0
28065 3 12.47014905692818 8.999565838351206 1.5454405924001577 0 0 0
28076 3 15.587694511771335 8.999565234570277 1.5454240464327462 0 0 0
28064 3 18.705240808831984 8.99956381124649 1.5454171468877482 0 0 0
28062 3 21.82278402540168 8.99956214821044 1.5454185765546298 0 0 0
28061 3 24.940324054496475 8.999559407575152 1.5454223652979102 0 0 0
28060 3 28.05786487649046 8.999555348824256 1.5454288637688527 0 0 0
28059 3 31.17540122539515 8.999551831714115 1.5454346488852067 0 0 0
28058 3 34.292939097831436 8.999553180463177 1.5454355047225965 0 0 0
28057 3 37.41048164696964 8.99955098407398 1.545437260234206 0 0 0
28056 3 1.5587694392367863 11.699431862946641 1.5454054762824394 0 0 0
28055 3 4.67626279686549 11.69943765068893 1.5455120782898533 0 0 0
28054 3 7.793825986852642 11.699432577037456 1.5454658985090592 0 0 0
28053 3 10.911378399634513 11.699432712843521 1.5454450757797995 0 0 0
28052 3 14.02892565676559 11.69943645239139 1.545430246847877 0 0 0
28023 3 17.146469402500788 11.699440164243585 1.545421285640834 0 0 0
28022 3 20.264013418731928 11.69944105830354 1.545418719769048 0 0 0
28021 3 23.381553886691034 11.699440232769605 1.5454208740030828 0 0 0
28007 3 26.499092943088613 11.699440024050455 1.5454231637505311 0 0 0
27991 3 29.616630837166298 11.699436510175701 1.5454267600330747 0 0 0
27990 3 32.73416695857259 11.699435494044092 1.5454274348938588 0 0 0
27989 3 35.85170789708404 11.699430918276832 1.5454271075554549 0 0 0
23502 2 4.676311197432844 27.8986462198729 4.663240239630189 0 0 0
27988 3 3.1175207998243137 14.39925854741534 1.5455119101381756 0 0 0
27987 3 6.2350636318291945 14.39929251638437 1.5454675260184367 0 0 0
27986 3 9.352609485133385 14.399299356130765 1.54544607687133 0 0 0
27985 3 12.470158325431042 14.399304321274448 1.545434262729829 0 0 0
27984 3 15.58770233846808 14.399309403507205 1.5454300568708652 0 0 0
27983 3 18.70524613333714 14.399315383519683 1.545428228067178 0 0 0
27982 3 21.82279033287595 14.3993203177251 1.5454343338960954 0 0 0
27981 3 24.94032693020018 14.399324263030554 1.545441292528958 0 0 0
27980 3 28.057860633087977 14.399325120899237 1.5454426736298172 0 0 0
27979 3 31.175394415285382 14.399321199948 1.5454413079542095 0 0 0
27978 3 34.29293150780391 14.399315883131477 1.5454373143042115 0 0 0
27977 3 37.410472695156415 14.399309648615874 1.5454331073236378 0 0 0
27976 3 1.5587695940904271 17.099145909355066 1.545474545123159 0 0 0
27975 3 4.67629943982199 17.099149496633686 1.5454641668188873 0 0 0
27974 3 7.7938434866805295 17.099163746452604 1.5454470874047184 0 0 0
27973 3 10.911390230514243 17.099172171081953 1.5454358254893064 0 0 0
27972 3 14.028937041727946 17.099177254602164 1.5454342983998868 0 0 0
27971 3 17.14648200746916 17.09918532379454 1.5454393365123886 0 0 0
27970 3 20.26402932967025 17.099195283168452 1.5454528954103512 0 0 0
27969 3 23.381565446977962 17.099202181083545 1.545471826693653 0 0 0
27992 3 26.499100224109714 17.09921444843038 1.5454823219196312 0 0 0
27993 3 29.616625240258447 17.09921052054952 1.5454805039062702 0 0 0
27994 3 32.73415159149375 17.099207264153826 1.5454711964876067 0 0 0
27995 3 35.85169333233093 17.099191090627496 1.5454576514006253 0 0 0
23494 2 14.028931141146323 27.89864508356873 4.663277007526339 0 0 0
28019 3 3.117537977834202 19.799025062470523 1.545451919342929 0 0 0
28018 3 6.235077478288469 19.799029439611388 1.5454441143679931 0 0 0
28017 3 9.352621524018874 19.7990380131212 1.5454373782575273 0 0 0
28016 3 12.470169514992767 19.799044992870414 1.5454368843181059 0 0 0
28015 3 15.587719161013675 19.79905422247934 1.545446992336265 0 0 0
28014 3 18.70526571588505 19.79906365621376 1.5454675448453843 0 0 0
28013 3 21.82280881745017 19.799079077351717 1.545497784345848 0 0 0
28012 3 24.940342683260514 19.799083894658978 1.545524216502121 0 0 0
28011 3 28.057878956654854 19.79911234418691 1.5455586908496401 0 0 0
28010 3 31.175369028640407 19.79910894124587 1.5455510997267656 0 0 0
28009 3 34.29290586253637 19.79907501558533 1.5455028642446529 0 0 0
28020 3 37.41044858357522 19.799063980839744 1.5454749685984748 0 0 0
28008 3 1.5587690359910407 22.498898710076148 1.5454407338381133 0 0 0
28006 3 4.676309834881553 22.498900643085612 1.5454372816333655 0 0 0
28005 3 7.79385363894224 22.498904414409758 1.545435774974136 0 0 0
28004 3 10.911401333132595 22.498910898560094 1.5454392088480629 0 0 0
28003 3 14.028950893648856 22.49891772321105 1.5454515352165465 0 0 0
28002 3 17.146505531196023 22.498934700358703 1.545476629975393 0 0 0
28001 3 20.26404895887249 22.498939424534544 1.545513413750149 0 0 0
28000 3 23.381598054525604 22.49896964642623 1.5455723789509097 0 0 0
27999 3 26.499112020972177 22.49896500991789 1.5456184920427962 0 0 0
27998 3 29.616621555854326 22.498933484594932 1.545483298264312 0 0 0
27997 3 32.73412836412488 22.49895847721937 1.5456022899069688 0 0 0
27996 3 35.851642598589976 22.498949674249495 1.5455354567992399 0 0 0
9876 1 7.5720400673421575e-06 7.1996596403961775 3.104384603822369 1 0 0
28049 3 3.1175386825029805 25.198772346986022 1.5454318642648182 0 0 0
28077 3 6.235082672722635 25.19877254509102 1.5454304276046502 0 0 0
28078 3 9.352630332994146 25.198774825853743 1.545435530090125 0 0 0
28079 3 12.470179863449339 25.198779725153436 1.5454500516960425 0 0 0
28159 3 15.587737427733552 25.198788262198793 1.5454758264004875 0 0 0
28158 3 18.70530444656452 25.198815090479773 1.5455370580603676 0 0 0
28157 3 21.822817471268966 25.198816818426145 1.5456006703512082 0 0 0
28156 3 24.940326215781013 25.198778257793276 1.545476193262345 0 0 0
28155 3 28.05784128187434 25.198741111837037 1.5456288682454122 0 0 0
28154 3 31.175394824241426 25.19873665790902 1.5456200088560217 0 0 0
28153 3 34.29290603592378 25.198767630487094 1.5454389645680404 0 0 0
28152 3 37.41041422936846 25.198777598235985 1.5455160824266774 0 0 0
28151 3 1.5587661243273412 27.898644389291196 1.5454296706156783 0 0 0
28150 3 4.676310040671615 27.898642692497866 1.5454259421309502 0 0 0
28149 3 7.793856616639954 27.898642954334 1.5454279806282973 0 0 0
28160 3 10.911406525432001 27.898643618799223 1.5454412225186747 0 0 0
28148 3 14.02896066144918 27.898643885943937 1.5454640950821517 0 0 0
28146 3 17.146530724066892 27.89864615448242 1.545517944844028 0 0 0
28145 3 20.264033580175493 27.89863155162535 1.5454317486305815 0 0 0
28144 3 23.381536340398693 27.898593840733984 1.5456020253417557 0 0 0
28143 3 26.499068633052225 27.898575270892827 1.5455794158023959 0 0 0
28142 3 29.616616915187876 27.89860071384467 1.545546918304765 0 0 0
28141 3 32.73415744863213 27.89857289612037 1.5455536247864616 0 0 0
28140 3 35.85167072817292 27.898593034391926 1.5455213061848885 0 0 0
23464 2 29.6166275535028 27.898659931646392 4.663369183375762 0 0 0
23674 2 1.5587671269542032 0.8999534168045827 4.663249934891414 0 0 0
8905 1 3.1175366977559915 1.799913635155203 3.104345490517036 0 0 0
23673 2 4.67630533720592 0.8999527928029278 4.663251092253672 0 0 0
8906 1 6.235075702910248 1.799913775012613 3.104347130598947 0 0 0
23672 2 7.793847171705097 0.8999534268976627 4.663251372398584 0 0 0
8908 1 9.352616620417963 1.7999130848144036 3.104345025779852 0 0 0
8910 1 12.47015837700074 1.799913022920978 3.104337055760672 0 0 0
23671 2 10.911390872525956 0.8999532564619048 4.663245683306466 0 0 0
8912 1 15.587700396280999 1.7999132047706903 3.1043359770497414 0 0 0
23670 2 14.028929813515004 0.8999542169839261 4.663241085141848 0 0 0
23540 2 17.146466976895546 0.8999563002748515 4.663246392201979 0 0 0
8914 1 18.705242349445616 1.7999127747774653 3.104344642592245 0 0 0
23539 2 20.264006338164357 0.899960164397693 4.663260700548086 0 0 0
8892 1 21.822785780188074 1.7999114913055694 3.104359431261657 0 0 0
23538 2 23.38154543172461 0.8999625814040316 4.663280079607564 0 0 0
8891 1 24.940329302534387 1.799906198795807 3.1043790977742023 0 0 0
8867 1 28.057865784958448 1.7998956817500171 3.1044105932343506 0 0 0
23437 2 26.499080186430735 0.8999611192276925 4.663310987759677 0 0 0
8869 1 31.17540018332291 1.7999056823234707 3.1044385931964524 0 0 0
23409 2 29.61661664015182 0.8999695489125866 4.663344860507533 0 0 0
23408 2 32.73418107552044 0.8999614569526639 4.663344622380582 0 0 0
8872 1 34.29293544192313 1.7998971223019244 3.1044183561005694 0 0 0
23407 2 35.85171904389933 0.8999637020763126 4.663321336617664 0 0 0
8873 1 37.41047945221476 1.799912672373065 3.104398979805653 0 0 0
28168 3 38.9692334660585 17.099182762788047 1.5454459171501929 0 0 0
8874 1 1.5587677338920694 4.499784960955141 3.1043607086153258 0 0 0
8875 1 4.6763041363468005 4.499786760379083 3.104360373438168 0 0 0
23406 2 3.1175370455342666 3.5998179237093035 4.663261825581963 0 0 0
8878 1 7.7938452046086795 4.499783543748389 3.104358504830739 0 0 0
23405 2 6.235075301081295 3.599820849163747 4.663261730706863 0 0 0
23404 2 9.352619464597051 3.5998214062580254 4.663258379113314 0 0 0
8880 1 10.911386707440794 4.4997831720345465 3.104350032227845 0 0 0
23403 2 12.470162190306597 3.5998226555777997 4.66324891290745 0 0 0
8881 1 14.028929118723825 4.49978330972637 3.1043396399731633 0 0 0
23402 2 15.58770100248817 3.599825901619621 4.663244506784321 0 0 0
8883 1 17.1464715512711 4.499782721356375 3.104337026169005 0 0 0
8884 1 20.264013129277643 4.499782482541629 3.1043413878755524 0 0 0
23401 2 18.705240075465422 3.5998292946394903 4.663247964778653 0 0 0
8886 1 23.381555714734642 4.499779831442352 3.1043507066507776 0 0 0
23400 2 21.822778929002954 3.5998325963561006 4.663257210974733 0 0 0
23410 2 24.940318887349093 3.5998333928680926 4.66327091826913 0 0 0
8890 1 26.499096850237432 4.4997749979140105 3.1043643764134132 0 0 0
23399 2 28.05785502870393 3.5998336251582006 4.663292106040017 0 0 0
8917 1 29.616633034503135 4.499773761060525 3.1043829440156783 0 0 0
23397 2 31.17539959741366 3.599844091896824 4.663311285699632 0 0 0
8945 1 32.73417038244621 4.499774243847568 3.104387382620797 0 0 0
8946 1 35.8517110030619 4.499774903240183 3.104379035208171 0 0 0
23396 2 34.29294492122268 3.599833159731673 4.663300705233824 0 0 0
23511 2 23.381543411152443 27.898653557602362 4.6633727169538375 0 0 0
23395 2 37.4104845313804 3.5998371318146556 4.66329301519937 0 0 0
23393 2 1.5587676379071973 6.2996826848377845 4.663285396285636 0 0 0
8951 1 3.117528633256359 7.199660319125122 3.1043855444008805 0 0 0
23392 2 4.676304350709264 6.299689032226703 4.663280582900576 0 0 0
8952 1 6.235073183116132 7.1996548645563 3.104376535899254 0 0 0
23391 2 7.793849125587592 6.299690373200828 4.663274127064864 0 0 0
8954 1 9.352615329854109 7.1996533916028005 3.1043654408941563 0 0 0
8955 1 12.470157697650421 7.199653432417991 3.104348605611793 0 0 0
23390 2 10.911394323729011 6.29969304306456 4.663262161756492 0 0 0
8957 1 15.58770026958656 7.199653014597476 3.104333481636139 0 0 0
23389 2 14.028935506223943 6.299696723078808 4.66324741129972 0 0 0
23388 2 17.14647318741499 6.299699554486593 4.663239611307267 0 0 0
8960 1 18.705241894783942 7.199652617221722 3.104328136644196 0 0 0
23398 2 20.26401097104056 6.2997021160747 4.663239988143535 0 0 0
8961 1 21.822783630948987 7.199651561146497 3.1043313156878276 0 0 0
23411 2 23.38155031887745 6.299702240205197 4.663246287862703 0 0 0
8963 1 24.940324207102694 7.199649722487061 3.104337174879586 0 0 0
8965 1 28.057862830589848 7.199648383190039 3.1043465379173227 0 0 0
23412 2 26.499088785986928 6.29970161617795 4.663255358984509 0 0 0
8967 1 31.175401167614428 7.19964743548879 3.1043553448407546 0 0 0
23413 2 29.61662755240611 6.299705053985045 4.66326757112917 0 0 0
23435 2 32.734171311716004 6.299706014999092 4.663271926012222 0 0 0
8942 1 34.29294046182783 7.199647474659467 3.1043546379758107 0 0 0
23434 2 35.851709285788104 6.2997017403237505 4.663268482316158 0 0 0
8929 1 37.4104810240614 7.199646363309619 3.104355408119084 0 0 0
23496 2 38.969245590047635 11.69943166425086 4.6632435930055305 0 0 0
8919 1 1.5587684598071585 9.899613124017028 3.104437692411088 0 0 0
8920 1 4.676305318881405 9.899521770227086 3.1044055753145234 0 0 0
23433 2 3.117535492359941 8.999553175671435 4.663306332324717 0 0 0
8921 1 7.79384303503843 9.899522800890749 3.1043758694103745 0 0 0
23432 2 6.2350859517218575 8.999559930090692 4.663294614895288 0 0 0
23431 2 9.352624168693449 8.999566646149852 4.663273298185809 0 0 0
8924 1 10.91138675387423 9.899522677332488 3.1043562375089877 0 0 0
23430 2 12.470166612624437 8.999567858666998 4.663254743007345 0 0 0
8926 1 14.028929256917266 9.899522889599018 3.10433782163571 0 0 0
23429 2 15.587706072685101 8.9995678194706 4.663238088114062 0 0 0
8928 1 17.146471299639654 9.899523142806707 3.1043247085504806 0 0 0
8930 1 20.26401221477957 9.899523102644503 3.104322379361612 0 0 0
23428 2 18.705242582935387 8.999568063300828 4.6632313524810565 0 0 0
8931 1 23.3815524176945 9.899522814508662 3.1043261102663977 0 0 0
23427 2 21.822780737136267 8.999568451290216 4.663232643808696 0 0 0
23426 2 24.940320300791107 8.999568684828798 4.663236453392056 0 0 0
8934 1 26.49909211435151 9.89952196263397 3.1043296316428517 0 0 0
23425 2 28.057858160677224 8.999569422155423 4.663243089364538 0 0 0
8935 1 29.61663068746238 9.899520973624348 3.1043355636390393 0 0 0
23424 2 31.175399052914177 8.999571571554542 4.663248521829801 0 0 0
8937 1 32.73416925443626 9.899520782080298 3.104337894161352 0 0 0
8938 1 35.85170949277998 9.899518559245502 3.1043384367654863 0 0 0
23423 2 34.29293913069301 8.999569863018213 4.663249043893426 0 0 0
28296 3 1.4392251421245946e-06 19.79902499232979 1.5454534387181578 1 0 0
23422 2 37.41047726637423 8.999568850136761 4.663250972942641 0 0 0
9076 1 3.117457669923969 12.599341793019919 3.104438070151328 0 0 0
23421 2 4.6763172636380475 11.699440543496337 4.663305909049828 0 0 0
9208 1 6.2350660579617685 12.599392454436558 3.104384200044962 0 0 0
23420 2 7.793852743720795 11.69943960951656 4.663278984174713 0 0 0
9210 1 9.35261350704424 12.599390254825073 3.104357869622158 0 0 0
9212 1 12.470158608194906 12.599391829671653 3.1043421622651084 0 0 0
23419 2 10.911394011073474 11.69943890177907 4.663258387830554 0 0 0
9214 1 15.587701086666208 12.599392900634415 3.1043335878188962 0 0 0
23418 2 14.028934133944462 11.69943576365565 4.663244529207048 0 0 0
23417 2 17.146474441301535 11.69943335549988 4.663235330360965 0 0 0
9217 1 18.7052426569151 12.59939442385421 3.1043283529562347 0 0 0
23416 2 20.264012455190667 11.699433189343656 4.6632326872267384 0 0 0
9219 1 21.822783316087094 12.599395062352112 3.104330167615104 0 0 0
23415 2 23.38155170188494 11.699433477879378 4.663235275959988 0 0 0
9220 1 24.940322665991 12.599394981629452 3.104332709857791 0 0 0
9222 1 28.057860475920368 12.599395435545665 3.1043348009968446 0 0 0
23414 2 26.49909063204638 11.69943289801846 4.663237308225505 0 0 0
9224 1 31.175398529014867 12.599394262509103 3.104336849994544 0 0 0
23387 2 29.616627920943678 11.699434604174069 4.663240506589984 0 0 0
23386 2 32.73416824351634 11.699434797807623 4.663241775275911 0 0 0
9226 1 34.2929374626522 12.59939188344268 3.104335337817735 0 0 0
23385 2 35.85170710945631 11.699433854486513 4.663241331900848 0 0 0
9227 1 37.410477795244795 12.599388791134276 3.104334851577859 0 0 0
23497 2 10.911389199099464 27.898643927891236 4.663254630157686 0 0 0
9228 1 1.5587697452882099 15.299253947378691 3.104404959552023 0 0 0
9229 1 4.6763058016382155 15.299245005237974 3.1043837893938444 0 0 0
23360 2 3.117550617351899 14.399304818512721 4.663305743785548 0 0 0
9218 1 7.793846664702431 15.299256466374427 3.1043595875769467 0 0 0
23358 2 6.235089258937758 14.399307579754485 4.663284146114792 0 0 0
23357 2 9.35262657366673 14.399306088699968 4.66325986879005 0 0 0
9182 1 10.91138946619107 15.29925921470832 3.104343557997757 0 0 0
23356 2 12.470163265676073 14.399305446760014 4.663248285116045 0 0 0
9184 1 14.028932361072586 15.299261812938969 3.1043399655595945 0 0 0
23355 2 15.587704436515395 14.399303187737578 4.663244239195693 0 0 0
9186 1 17.14647428924013 15.2992642302683 3.1043394905741866 0 0 0
9187 1 20.26401546573112 15.299266243242359 3.104343500978779 0 0 0
23354 2 18.705243644612697 14.399301118857897 4.66324261398911 0 0 0
9188 1 23.38155453598027 15.299267499083752 3.104354837922547 0 0 0
23353 2 21.82278015405613 14.399298021276309 4.663248586029426 0 0 0
23352 2 24.940321887359747 14.399295717569665 4.663254207790414 0 0 0
9191 1 26.499093458164054 15.299271380043841 3.1043595980572087 0 0 0
23351 2 28.057859953365668 14.399294765802127 4.663256411780936 0 0 0
9204 1 29.61662888538168 15.299268925947098 3.104358652180997 0 0 0
23350 2 31.175399859603832 14.399295820088406 4.66325507426839 0 0 0
9195 1 32.73416461493218 15.29926837794664 3.1043531744357584 0 0 0
9196 1 35.85170493864935 15.299262268449372 3.1043473508728083 0 0 0
23349 2 34.292937041423414 14.399297803243293 4.663250154074432 0 0 0
28230 3 1.8182772756388958e-05 14.399258465384108 1.5455119739220269 1 0 0
23359 2 37.410476678784036 14.399296736505267 4.663247287934933 0 0 0
23348 2 1.558770577804692 17.099180655679305 4.663291554537245 0 0 0
9201 1 3.1175390200339352 17.999120497722675 3.1043711336068514 0 0 0
23346 2 4.6763151666150025 17.099171384067557 4.663277331167047 0 0 0
9202 1 6.235077433139236 17.99912115112666 3.104357523965831 0 0 0
23344 2 7.793855659107701 17.099174112426425 4.663260929940771 0 0 0
9205 1 9.352620676159495 17.999125971790644 3.1043458092264697 0 0 0
9231 1 12.470164074320397 17.999129364002282 3.104342019095258 0 0 0
23343 2 10.911394973267216 17.09917222112796 4.663249492545085 0 0 0
9233 1 15.58770650324063 17.9991329227005 3.1043462165433255 0 0 0
23342 2 14.028933776983726 17.09917283205836 4.663248803679941 0 0 0
23341 2 17.146472780568903 17.099170598412186 4.663253504325606 0 0 0
9262 1 18.705247564887685 17.99913598526191 3.104357480669808 0 0 0
23340 2 20.264008128421114 17.099166693170798 4.663265456425802 0 0 0
9263 1 21.822788609460527 17.999141630422734 3.1043799009782345 0 0 0
23339 2 23.381547338665086 17.099160901169743 4.663284820433067 0 0 0
9265 1 24.940325646027063 17.99914205908375 3.1043998548499077 0 0 0
9267 1 28.05786715312129 17.99914935173086 3.104407919400818 0 0 0
23338 2 26.499094632463073 17.0991600961128 4.663294986074308 0 0 0
9269 1 31.175389694231747 17.99914716280457 3.1044010444944847 0 0 0
23337 2 29.61663134402554 17.09915690092759 4.663295448296006 0 0 0
23347 2 32.73416652879213 17.099160634576986 4.663283898494316 0 0 0
9272 1 34.29293115241952 17.99913656631508 3.104382173305406 0 0 0
23361 2 35.85170813635163 17.09916064641881 4.663270856833807 0 0 0
9273 1 37.410469357158995 17.999134079839745 3.10436528528105 0 0 0
23481 2 32.734164433955684 27.89864468074726 4.6633458953473985 0 0 0
9274 1 1.5587702858173529 20.69899155642679 3.104355564461931 0 0 0
9275 1 4.676310187810645 20.69899201617376 3.1043504635565706 0 0 0
23372 2 3.117542683423034 19.799043819048862 4.663265576623846 0 0 0
9277 1 7.793851461345704 20.69899302419129 3.104345689250158 0 0 0
23362 2 6.235082842888001 19.799040485880184 4.6632575110232715 0 0 0
23383 2 9.352624974316358 19.799039337909534 4.663251449469997 0 0 0
9279 1 10.911394742421894 20.698995688989356 3.10434405107363 0 0 0
23382 2 12.470164057539133 19.79903934221556 4.663251440636733 0 0 0
9281 1 14.028938008755713 20.69899898898613 3.1043504487600746 0 0 0
23381 2 15.587702533663572 19.7990396732992 4.663260078073439 0 0 0
9259 1 17.146481943017182 20.699006029494253 3.10436806577969 0 0 0
9258 1 20.264021278306604 20.699008243046084 3.104399469784103 0 0 0
23380 2 18.705236941421393 19.799034543816674 4.66328084143474 0 0 0
9244 1 23.381566171818513 20.699018328480673 3.1044329316516395 0 0 0
23379 2 21.82277923320981 19.79903516414473 4.6633099698310145 0 0 0
23378 2 24.940310478150092 19.799026030985107 4.663342755006487 0 0 0
9236 1 26.49908548739723 20.69901453896958 3.1044677675325385 0 0 0
23377 2 28.05785928072057 19.799022128100244 4.663352915258413 0 0 0
9238 1 29.61662776225243 20.69909796562511 3.10449177023445 0 0 0
23376 2 31.175401894478025 19.799020127296036 4.663345503788409 0 0 0
9240 1 32.73416938349487 20.69900969820474 3.1044527736669574 0 0 0
9241 1 35.85168794207069 20.69900838271094 3.10440517947162 0 0 0
23375 2 34.29294911052894 19.79902178734651 4.6633223459769155 0 0 0
23499 2 7.793849833360593 27.89864494860034 4.66324224182941 0 0 0
23374 2 37.410475883236366 19.79903466643413 4.663287548123527 0 0 0
23384 2 1.5587717073085976 22.49891079645999 4.663254618867386 0 0 0
9246 1 3.1175406285068235 23.39886190201804 3.1043428690116213 0 0 0
23373 2 4.6763119483424225 22.498909346997227 4.663251574057424 0 0 0
9247 1 6.235081666426081 23.398862013087204 3.1043414288569284 0 0 0
23371 2 7.79385220627229 22.49890835417291 4.663249998893743 0 0 0
9249 1 9.352624531001032 23.398862724373682 3.1043436646947984 0 0 0
9251 1 12.470168692755017 23.398864475422965 3.1043533737863718 0 0 0
23370 2 10.911392414522869 22.49890638401303 4.6632531606430065 0 0 0
9253 1 15.587713622080912 23.398868629857006 3.1043736362295418 0 0 0
23369 2 14.028931995467834 22.498905113315264 4.6632652199807705 0 0 0
23368 2 17.146472065215132 22.49890633919177 4.663289115205883 0 0 0
9181 1 18.705263664479425 23.39887778071206 3.1044104748140673 0 0 0
23367 2 20.264001442075802 22.498897910059235 4.663333302358126 0 0 0
9283 1 21.822785050826944 23.3988771729481 3.1044609533907193 0 0 0
23366 2 23.38155107169668 22.498903126399558 4.663364227987774 0 0 0
9178 1 24.94033541614153 23.398970848185122 3.104512527009629 0 0 0
9103 1 28.057943121729394 23.398820318394918 3.1045387479314903 0 0 0
23365 2 26.499079427151376 22.498905027070258 4.663391438348432 0 0 0
9105 1 31.175307033755406 23.398817484133232 3.1045314978790275 0 0 0
23364 2 32.73418265247244 22.498903014922135 4.663373900041664 0 0 0
9108 1 34.292916122660465 23.398965321759196 3.1044827634689476 0 0 0
23363 2 35.85170600644996 22.49890003054102 4.663327605588836 0 0 0
9109 1 37.410462455273525 23.39886332175999 3.1044108535701453 0 0 0
23492 2 17.14646447062878 27.898649993820552 4.663311906254916 0 0 0
9110 1 1.5587698551826428 26.098732097297358 3.1043394130543094 0 0 0
9111 1 4.676311246786487 26.098731469281503 3.1043357109856284 0 0 0
23436 2 3.11754229429246 25.19877794136332 4.663246154984473 0 0 0
9114 1 7.79385369692871 26.098731042959596 3.1043373470347717 0 0 0
23438 2 6.235081876824815 25.198777954314625 4.663244549076029 0 0 0
23537 2 9.35262039512736 25.198776363953257 4.663249748325837 0 0 0
9116 1 10.911397281954502 26.09873097705135 3.1043484086029247 0 0 0
23439 2 12.470160572801252 25.19877458283209 4.663263345101941 0 0 0
9117 1 14.02894397019819 26.09873176449948 3.1043694679902902 0 0 0
23509 2 15.587696916897977 25.198770840356016 4.663292712683832 0 0 0
9119 1 17.146486339451656 26.098732303367886 3.104412649315723 0 0 0
9120 1 20.26403233888664 26.098832587833577 3.1044799356324706 0 0 0
23508 2 18.70524358924511 25.198771637096435 4.663329450329627 0 0 0
9122 1 23.381642502256952 26.09867980090905 3.1045206985904836 0 0 0
23507 2 21.822769151977543 25.198777368956414 4.663371610260367 0 0 0
9102 1 26.499011390428784 26.09866807637397 3.104516978049532 0 0 0
23506 2 28.057856328915353 25.198785924368128 4.663400965325478 0 0 0
9113 1 29.616623525604304 26.09873212575817 3.1044930337034113 0 0 0
23505 2 31.175402268918273 25.19878708055242 4.6633905719421 0 0 0
9087 1 32.73423656286656 26.09866577312549 3.104493906759453 0 0 0
9077 1 35.85161584719509 26.098680373101782 3.104450295589073 0 0 0
23513 2 26.499091838844944 27.898645668960082 4.663371418033509 0 0 0
23504 2 37.41048417030351 25.19878119920485 4.663310263829939 0 0 0
23503 2 1.558771499480183 27.898646293873355 4.663243984276649 0 0 0
24131 2 35.85171820971516 27.898645953520877 4.663315181958937 0 0 0
28138 3 38.969212187832355 22.49891666335951 1.5454755361924146 0 0 0
9198 1 38.96924507898082 15.299259037761418 3.1043429300059904 0 0 0
8822 1 18.705330990400284 28.79854823360105 3.1044488482910726 0 0 0
23493 2 38.96924507905112 6.299703824184749 4.663276305931629 0 0 0
8826 1 31.17539202706907 28.798574092905916 3.10443494427887 0 0 0
8740 1 1.1520342550104778e-06 17.999120207749584 3.104372340925234 1 0 0
15667 2 1.3377523863556844e-06 8.999551892604908 4.663305777577152 1 0 0
8702 1 1.1497210325722954e-07 23.39886229028037 3.1043460515136174 1 0 0
28216 3 2.64276035943467e-05 8.999599466917786 1.5455118271835853 1 0 0
28139 3 38.96922258432538 27.898631075821875 1.545465325819982 0 0 0
8828 1 37.41046545077897 28.798582619049103 3.104384181534172 0 0 0
8823 1 21.82270485075864 28.798531343842384 3.104480763960437 0 0 0
9243 1 38.969236751997215 20.698998103387975 3.10437472748161 0 0 0
9838 1 8.083146259145008e-05 12.599341132350526 3.1044374280869924 1 0 0
8836 1 28.057851710157088 28.798573567176 3.1044466976008587 0 0 0
23498 2 38.969246420677784 17.099164558407274 4.663258905224495 0 0 0
9079 1 38.969226675686755 26.098730745176947 3.1043818386767064 0 0 0
28220 3 1.5724550050979618e-06 3.599835086227194 1.545446332185313 1 0 0
8819 1 9.352625011888378 28.798599135626972 3.1043393797993004 0 0 0
8821 1 15.587720125975391 28.79860020560724 3.104385573791746 0 0 0
8820 1 12.470170950924546 28.79859800516727 3.104357407130499 0 0 0
8825 1 24.94031289264293 28.798589359233475 3.104464421354572 0 0 0
8818 1 6.235081763123505 28.798599942841374 3.1043317892113977 0 0 0
27800 3 3.117535933174495 30.598516709737183 1.5454287472340265 0 0 0
27799 3 6.235080033304439 30.59851458609611 1.5454259656718037 0 0 0
27798 3 9.352628370842622 30.598512028622785 1.5454321729293388 0 0 0
27784 3 12.470175175152521 30.598508520961488 1.545448453305795 0 0 0
27768 3 15.587721372170433 30.59850056913078 1.5454695140336934 0 0 0
27767 3 18.705270232114067 30.598460631477383 1.545519158459172 0 0 0
27766 3 21.82277926266278 30.598439151755876 1.5455398915874266 0 0 0
27765 3 24.94031450001842 30.598464377470123 1.545519027559781 0 0 0
27764 3 28.05784589632516 30.59846454176877 1.545511013712921 0 0 0
27763 3 31.175390691420883 30.59846565809235 1.5454999587634002 0 0 0
27762 3 34.292922184835966 30.598473036409974 1.5454846940343492 0 0 0
27761 3 37.410457487049015 30.59848578017441 1.545462749268998 0 0 0
27760 3 1.5587610226538227 33.298389810731656 1.5454407283033549 0 0 0
27759 3 4.676305540319346 33.298387282134435 1.5454332734919463 0 0 0
27758 3 7.793849251091095 33.298384389176 1.5454302971558955 0 0 0
27757 3 10.911395709637638 33.29837868893653 1.5454364243473333 0 0 0
27756 3 14.028939653540792 33.29836992365487 1.5454474644533103 0 0 0
27755 3 17.146485753222866 33.29835433479353 1.5454622883480627 0 0 0
27754 3 20.264019939281145 33.29834193712644 1.5454777753111792 0 0 0
27753 3 23.381545818924945 33.29833648531139 1.5454815721920534 0 0 0
27752 3 26.49908448223374 33.29834391886735 1.5454761395481742 0 0 0