LAMMPS data file via write_data, version 2 Aug 2023, timestep = 745, units = metal

37760 atoms
3 atom types

0 1247.0154186472353 xlo xhi
0 86.39579056024704 ylo yhi
0 50 zlo zhi
0 0 0 xy xz yz

Masses

1 95.94
2 32.065
3 32.065

Atoms # atomic

1 3 1.5586329440560724 0.8999215412240568 1.546781215318474 0 0 0
2 3 4.676038531546234 0.8999647177240262 1.5463008007942651 0 0 0
3 3 7.7935792365164165 0.8999410854188902 1.5460807096993987 0 0 0
4 3 10.911015370313963 0.8999432905452763 1.5460111977587356 0 0 0
5 3 14.028627680753816 0.8999598805291811 1.545743866860454 0 0 0
6 3 17.146208576600795 0.8999683041393368 1.5454618276774075 0 0 0
7 3 20.26392816858078 0.899981989133725 1.5452818486446835 0 0 0
8 3 23.38158530329996 0.8999574949889613 1.5453688844651787 0 0 0
9 3 26.499099795854043 0.8999527058132708 1.5454521427787213 0 0 0
10 3 29.616617582286327 0.8999565876301927 1.545448976278779 0 0 0
11 3 32.73415552694422 0.8999561197208129 1.545440150357591 0 0 0
12 3 3.1173057204533468 3.599790291856558 1.5465638933635535 0 0 0
13 3 6.234837008345379 3.599862480621174 1.5461442835238828 0 0 0
14 3 9.352270179714239 3.599793467448067 1.5460234252460177 0 0 0
15 3 12.469807152380914 3.599841060806845 1.545874589220232 0 0 0
16 3 15.587403679640724 3.5998172131311135 1.545605914347623 0 0 0
17 3 18.7050532514553 3.5998526059640024 1.5453367129576614 0 0 0
18 3 21.822783205174712 3.5998385822165258 1.5453056998255619 0 0 0
19 3 24.940350037060732 3.5998208484070755 1.5454249946781442 0 0 0
20 3 28.05785460725771 3.599823676571489 1.5454555105868222 0 0 0
21 3 31.17538601528377 3.599825010020745 1.5454428198075132 0 0 0
22 3 34.29292454547219 3.599824397019829 1.545439853665852 0 0 0
23 3 1.5586329440576205 6.299658451239181 1.5467812153176208 0 0 0
24 3 4.676038531545811 6.299701627739691 1.546300800794259 0 0 0
25 3 7.793579236516446 6.299677995434126 1.5460807096991962 0 0 0
26 3 10.91101537031396 6.299680200560613 1.546011197758711 0 0 0
27 3 14.028627680753772 6.299696790544586 1.5457438668604222 0 0 0
28 3 17.146208576600745 6.299705214154794 1.545461827677182 0 0 0
29 3 20.263928168580733 6.2997188991491235 1.5452818486447282 0 0 0
30 3 23.38158530330006 6.299694405004134 1.545368884465376 0 0 0
31 3 26.499099795854082 6.299689615828539 1.5454521427787515 0 0 0
32 3 29.61661758228631 6.299693497645419 1.5454489762789936 0 0 0
33 3 32.7341555269441 6.299693029736095 1.5454401503576425 0 0 0
34 3 3.1173057204533867 8.999527201872123 1.5465638933641568 0 0 0
35 3 6.234837008345264 8.999599390636641 1.546144283524073 0 0 0
36 3 9.352270179714264 8.999530377463598 1.5460234252460003 0 0 0
37 3 12.469807152380902 8.999577970822264 1.5458745892202401 0 0 0
38 3 15.587403679640772 8.999554123146574 1.5456059143477194 0 0 0
39 3 18.705053251455393 8.999589515979542 1.545336712957569 0 0 0
40 3 21.822783205174744 8.999575492231953 1.545305699825525 0 0 0
41 3 24.940350037060732 8.999557758422503 1.5454249946782785 0 0 0
42 3 28.05785460725771 8.99956058658694 1.5454555105868486 0 0 0
43 3 31.17538601528377 8.999561920036184 1.5454428198075127 0 0 0
44 3 34.29292454547215 8.999561307035274 1.5454398536658867 0 0 0
45 3 1.558632944055677 11.699395361255494 1.5467812153188483 0 0 0
46 3 4.676038531546209 11.699438537754816 1.546300800794218 0 0 0
47 3 7.79357923651633 11.699414905449723 1.5460807096994018 0 0 0
48 3 10.911015370313963 11.699417110576109 1.546011197758729 0 0 0
49 3 14.028627680753848 11.699433700560041 1.5457438668603858 0 0 0
50 3 17.146208576600777 11.699442124170229 1.545461827677224 0 0 0
51 3 20.263928168580673 11.69945580916458 1.5452818486447844 0 0 0
52 3 23.381585303299918 11.699431315019636 1.5453688844653024 0 0 0
53 3 26.49909979585406 11.699426525844032 1.5454521427786778 0 0 0
54 3 29.616617582286363 11.699430407660808 1.5454489762789836 0 0 0
55 3 32.73415552694418 11.699429939751678 1.5454401503577249 0 0 0
56 3 3.1173057204533468 14.399264111887403 1.5465638933636132 0 0 0
57 3 6.234837008345429 14.399336300651955 1.5461442835239092 0 0 0
58 3 9.352270179714171 14.399267287478999 1.54602342524596 0 0 0
59 3 12.469807152380923 14.399314880837723 1.545874589220256 0 0 0
60 3 15.587403679640763 14.399291033162092 1.545605914347695 0 0 0
61 3 18.705053251455347 14.399326425995023 1.5453367129575546 0 0 0
62 3 21.822783205174783 14.399312402247395 1.5453056998255366 0 0 0
63 3 24.940350037060693 14.399294668437907 1.5454249946781529 0 0 0
64 3 28.05785460725771 14.39929749660236 1.5454555105868915 0 0 0
65 3 31.17538601528387 14.399298830051585 1.5454428198074448 0 0 0
66 3 34.29292454547209 14.399298217050724 1.545439853665782 0 0 0
67 3 1.5586329440575921 17.0991322712701 1.546781215317798 0 0 0
68 3 4.6760385315458874 17.099175447770396 1.546300800794232 0 0 0
69 3 7.793579236516541 17.09915181546497 1.5460807096992428 0 0 0
70 3 10.911015370314033 17.09915402059157 1.5460111977587354 0 0 0
71 3 14.028627680753859 17.09917061057552 1.5457438668604668 0 0 0
72 3 17.14620857660083 17.09917903418573 1.5454618276771017 0 0 0
73 3 20.263928168580733 17.099192719179964 1.5452818486447746 0 0 0
74 3 23.38158530330004 17.099168225035015 1.5453688844653821 0 0 0
75 3 26.499099795854065 17.099163435859435 1.5454521427787549 0 0 0
76 3 29.616617582286324 17.099167317676283 1.5454489762789811 0 0 0
77 3 32.734155526944164 17.09916684976686 1.5454401503576376 0 0 0
78 3 3.1173057204533845 19.7990010219032 1.546563893363996 0 0 0
79 3 6.234837008345564 19.799073210667327 1.5461442835239334 0 0 0
80 3 9.352270179714399 19.79900419749439 1.546023425245976 0 0 0
81 3 12.469807152380993 19.79905179085307 1.5458745892201196 0 0 0
82 3 15.587403679640813 19.79902794317757 1.5456059143475307 0 0 0
83 3 18.7050532514553 19.79906333601041 1.5453367129577111 0 0 0
84 3 21.822783205174733 19.799049312262923 1.5453056998255696 0 0 0
85 3 24.940350037060632 19.799031578453473 1.5454249946782048 0 0 0
86 3 28.05785460725775 19.799034406617796 1.5454555105868577 0 0 0
87 3 31.17538601528377 19.799035740067023 1.5454428198074746 0 0 0
88 3 34.29292454547211 19.7990351270661 1.5454398536659062 0 0 0
89 3 1.5586329440558997 22.498869181286587 1.5467812153187435 0 0 0
90 3 4.676038531546028 22.49891235778583 1.546300800794302 0 0 0
91 3 7.7935792365166945 22.49888872548049 1.5460807096993867 0 0 0
92 3 10.9110153703141 22.498890930606994 1.5460111977588722 0 0 0
93 3 14.028627680753887 22.498907520590972 1.5457438668604444 0 0 0
94 3 17.146208576600678 22.49891594420114 1.5454618276772032 0 0 0
95 3 20.26392816858082 22.49892962919548 1.545281848644756 0 0 0
96 3 23.381585303299932 22.49890513505063 1.5453688844653686 0 0 0
97 3 26.499099795854065 22.49890034587489 1.5454521427787622 0 0 0
98 3 29.61661758228631 22.498904227691703 1.5454489762789738 0 0 0
99 3 32.73415552694414 22.498903759782344 1.5454401503576278 0 0 0
100 3 3.1173057204535977 25.198737931918384 1.546563893363622 0 0 0
101 3 6.234837008345647 25.198810120682936 1.5461442835239108 0 0 0
102 3 9.352270179714356 25.19874110750988 1.5460234252460305 0 0 0
103 3 12.469807152380964 25.198788700868718 1.5458745892200605 0 0 0
104 3 15.587403679640724 25.198764853193072 1.545605914347662 0 0 0
105 3 18.705053251455187 25.198800246025904 1.5453367129575306 0 0 0
106 3 21.82278320517469 25.19878622227839 1.5453056998255317 0 0 0
107 3 24.94035003706085 25.198768488468875 1.54542499467815 0 0 0
108 3 28.05785460725771 25.198771316633238 1.5454555105868817 0 0 0
109 3 31.17538601528385 25.198772650082464 1.5454428198075434 0 0 0
110 3 34.29292454547215 25.198772037081437 1.5454398536657794 0 0 0
111 3 1.5586329440558113 27.89860609130181 1.5467812153184897 0 0 0
112 3 4.67603853154624 27.898649267801158 1.546300800794091 0 0 0
113 3 7.793579236516585 27.898625635496067 1.546080709699316 0 0 0
114 3 10.911015370314072 27.898627840622552 1.546011197758784 0 0 0
115 3 14.028627680753777 27.898644430606307 1.545743866860297 0 0 0
116 3 17.146208576600696 27.89865285421654 1.5454618276772 0 0 0
117 3 20.263928168580733 27.898666539210886 1.5452818486447553 0 0 0
118 3 23.38158530329994 27.898642045065863 1.5453688844653508 0 0 0
119 3 26.499099795854125 27.89863725589043 1.5454521427788326 0 0 0
120 3 29.61661758228629 27.89864113770713 1.5454489762791017 0 0 0
121 3 32.73415552694409 27.898640669797985 1.5454401503576987 0 0 0
122 3 3.1173057204534205 30.59847484193409 1.5465638933639616 0 0 0
123 3 6.234837008345604 30.59854703069836 1.546144283524034 0 0 0
124 3 9.352270179714237 30.598478017525352 1.5460234252458676 0 0 0
125 3 12.46980715238103 30.598525610883947 1.5458745892200847 0 0 0
126 3 15.58740367964077 30.598501763208382 1.545605914347705 0 0 0
127 3 18.705053251455247 30.598537156041473 1.5453367129576128 0 0 0
128 3 21.82278320517465 30.59852313229381 1.545305699825535 0 0 0
129 3 24.94035003706061 30.598505398484377 1.5454249946782164 0 0 0
130 3 28.05785460725775 30.598508226648825 1.5454555105868149 0 0 0
131 3 31.17538601528383 30.59850956009802 1.545442819807451 0 0 0
132 3 34.29292454547208 30.59850894709713 1.5454398536658849 0 0 0
133 3 1.5586329440573288 33.29834300131629 1.5467812153186888 0 0 0
134 3 4.676038531546032 33.298386177816674 1.546300800794124 0 0 0
135 3 7.79357923651664 33.2983625455114 1.5460807096994569 0 0 0
136 3 10.911015370313983 33.2983647506378 1.5460111977588338 0 0 0
137 3 14.028627680753733 33.29838134062196 1.5457438668605439 0 0 0
138 3 17.14620857660077 33.29838976423215 1.5454618276771848 0 0 0
139 3 20.263928168580655 33.298403449226235 1.5452818486446527 0 0 0
140 3 23.38158530330008 33.298378955081354 1.5453688844652977 0 0 0
141 3 26.49909979585406 33.29837416590585 1.5454521427787724 0 0 0
142 3 29.61661758228637 33.298378047722515 1.5454489762789796 0 0 0
143 3 32.7341555269441 33.298377579813234 1.5454401503574902 0 0 0
144 3 3.11730572045364 35.99821175194934 1.546563893363557 0 0 0
145 3 6.234837008345639 35.99828394071368 1.5461442835237804 0 0 0
146 3 9.352270179714314 35.99821492754061 1.5460234252459892 0 0 0
147 3 12.469807152381 35.99826252089933 1.5458745892199484 0 0 0
148 3 15.587403679640843 35.99823867322393 1.5456059143474443 0 0 0
149 3 18.70505325145526 35.998274066056766 1.5453367129575886 0 0 0
150 3 21.82278320517475 35.99826004230907 1.5453056998256345 0 0 0
151 3 24.94035003706077 35.998242308499954 1.5454249946782035 0 0 0
152 3 28.05785460725771 35.998245136664394 1.5454555105870194 0 0 0
153 3 31.17538601528385 35.9982464701135 1.5454428198078076 0 0 0
154 3 34.29292454547209 35.99824585711259 1.5454398536659304 0 0 0
155 3 1.5586329440562152 38.69807991133281 1.546781215318101 0 0 0
156 3 4.67603853154575 38.69812308783239 1.546300800794255 0 0 0
157 3 7.793579236516784 38.698099455526894 1.546080709699355 0 0 0
158 3 10.911015370314091 38.698101660653435 1.5460111977589281 0 0 0
159 3 14.02862768075381 38.69811825063744 1.545743866860534 0 0 0
160 3 17.14620857660066 38.698126674247355 1.5454618276771772 0 0 0
161 3 20.26392816858074 38.69814035924178 1.5452818486447621 0 0 0
162 3 23.38158530330008 38.69811586509664 1.545368884465286 0 0 0
163 3 26.499099795854082 38.69811107592141 1.5454521427784558 0 0 0
164 3 29.61661758228631 38.698114957738206 1.5454489762787373 0 0 0
165 3 32.73415552694402 38.698114489828896 1.5454401503574 0 0 0
166 3 3.1173057204534187 41.397948661964975 1.5465638933638686 0 0 0
167 3 6.234837008345393 41.3980208507294 1.5461442835240549 0 0 0
168 3 9.35227017971424 41.397951837556235 1.546023425246012 0 0 0
169 3 12.46980715238098 41.39799943091483 1.545874589219979 0 0 0
170 3 15.58740367964086 41.39797558323934 1.5456059143476077 0 0 0
171 3 18.705053251455258 41.398010976072186 1.5453367129576396 0 0 0
172 3 21.822783205174712 41.39799695232449 1.5453056998256547 0 0 0
173 3 24.94035003706067 41.39797921851526 1.5454249946782164 0 0 0
174 3 28.057854607257788 41.39798204667934 1.545455510586895 0 0 0
175 3 31.17538601528383 41.397983380128956 1.545442819807502 0 0 0
176 3 34.29292454547209 41.39798276712778 1.5454398536659852 0 0 0
179 1 3.1175485482122247 1.7998939993115541 3.1055388429900024 0 0 0
181 1 6.234927818806951 1.799947777799405 3.1051086155328727 0 0 0
182 1 9.352350273049847 1.7999155217704452 3.1050408845583464 0 0 0
183 2 10.911348530677168 0.8999535691895043 4.663786763010744 0 0 0
184 1 12.469958966698313 1.7999022514206502 3.104765619802611 0 0 0
185 2 14.028865940414974 0.8999706290323776 4.663545817555043 0 0 0
186 1 15.587546188973832 1.7999132824823751 3.1044995571929177 0 0 0
187 2 17.1464782943253 0.8999605810780694 4.663271648776806 0 0 0
188 2 20.263954883871815 0.8999488107729647 4.6630865273275015 0 0 0
189 1 18.70514147806187 1.7999106773720592 3.104236153677945 0 0 0
190 2 23.381470941940627 0.8999667674228821 4.663177333846107 0 0 0
191 1 21.822737403104828 1.7999118553100986 3.104197760721889 0 0 0
192 2 26.49907069250401 0.8999614480449889 4.663264054510145 0 0 0
193 1 24.940309679551635 1.7999129015418265 3.10432842311069 0 0 0
194 1 28.05785502190939 1.799912860900142 3.1043641882338715 0 0 0
195 2 29.61662791679465 0.8999547114253957 4.6632618755209085 0 0 0
196 1 31.175389615237197 1.7999128939044942 3.1043492858537878 0 0 0
197 2 32.73415797573087 0.8999555888771225 4.663252751007371 0 0 0
198 1 34.292924725945106 1.7999126138001476 3.104345987051049 0 0 0
199 1 1.558783777260178 4.499761101068716 3.105753168112916 0 0 0
200 1 4.676255336313521 4.499804824363645 3.1052804833717462 0 0 0
202 1 7.793635574143707 4.499796286357537 3.105069593461346 0 0 0
205 1 10.911108245438692 4.499732797299628 3.104927208317219 0 0 0
206 2 12.470104955663636 3.5998055286909607 4.663661203155172 0 0 0
207 1 14.02874763187997 4.4997793135149715 3.1046306317872134 0 0 0
208 2 15.587677100086749 3.5998472889280344 4.663420225416843 0 0 0
209 1 17.146338196375652 4.499779009875575 3.1043548740408626 0 0 0
210 1 20.26394262897272 4.499779831933215 3.104177773202308 0 0 0
211 2 18.705231518483117 3.599817236806866 4.66314007645695 0 0 0
212 1 23.381528547578696 4.49978124733591 3.104265300884672 0 0 0
213 2 21.822696560071307 3.599826598847758 4.663112042554616 0 0 0
214 1 26.499085270379602 4.499781301456321 3.1043605529307023 0 0 0
215 2 24.940271856965158 3.5998348130149203 4.6632355156895295 0 0 0
216 2 28.057856500484718 3.59982504074557 4.663268268912521 0 0 0
217 1 29.616622790521856 4.499781400002261 3.104356394969172 0 0 0
218 2 31.17539315017711 3.5998233313591625 4.663255643744646 0 0 0
219 1 32.73415684583325 4.49978120733053 3.1043463182490605 0 0 0
220 2 34.292924679021645 3.5998244553269743 4.663252285612693 0 0 0
223 1 3.1175485482118597 7.199630909326705 3.1055388429900352 0 0 0
225 1 6.234927818806903 7.199684687814708 3.105108615532719 0 0 0
226 1 9.352350273049986 7.199652431785718 3.105040884558455 0 0 0
227 2 10.911348530677085 6.299690479204753 4.663786763010659 0 0 0
228 1 12.46995896669854 7.199639161436112 3.1047656198026248 0 0 0
229 2 14.028865940414903 6.2997075390477395 4.663545817554982 0 0 0
230 1 15.58754618897364 7.199650192497869 3.1044995571929106 0 0 0
231 2 17.146478294325355 6.29969749109349 4.663271648776913 0 0 0
232 2 20.2639548838717 6.29968572078839 4.663086527327396 0 0 0
233 1 18.705141478062032 7.199647587387518 3.1042361536781424 0 0 0
234 2 23.381470941940677 6.299703677438051 4.663177333845947 0 0 0
235 1 21.822737403104956 7.199648765325559 3.104197760721923 0 0 0
236 2 26.499070692503953 6.29969835806025 4.6632640545100825 0 0 0
237 1 24.940309679551653 7.199649811557216 3.104328423110758 0 0 0
238 1 28.057855021909308 7.199649770915543 3.104364188234084 0 0 0
239 2 29.61662791679457 6.299691621440553 4.663261875520516 0 0 0
240 1 31.175389615237066 7.199649803919778 3.104349285853713 0 0 0
241 2 32.73415797573081 6.299692498892486 4.663252751007303 0 0 0
242 1 34.29292472594539 7.19964952381543 3.1043459870508947 0 0 0
243 1 1.558783777259 9.89949801108328 3.1057531681124777 0 0 0
244 1 4.676255336313618 9.899541734379044 3.105280483371869 0 0 0
246 1 7.793635574143638 9.899533196372932 3.1050695934613617 0 0 0
249 1 10.911108245438745 9.899469707315124 3.1049272083172172 0 0 0
250 2 12.470104955663636 8.999542438706408 4.663661203155142 0 0 0
251 1 14.028747631879982 9.899516223530462 3.1046306317871784 0 0 0
252 2 15.587677100086758 8.99958419894346 4.663420225416816 0 0 0
253 1 17.14633819637543 9.89951591989122 3.1043548740408706 0 0 0
254 1 20.263942628972593 9.899516741948691 3.104177773202281 0 0 0
255 2 18.705231518483185 8.999554146822277 4.6631400764569975 0 0 0
256 1 23.381528547578974 9.899518157351197 3.104265300884724 0 0 0
257 2 21.822696560071254 8.999563508863156 4.663112042554722 0 0 0
258 1 26.499085270379542 9.89951821147157 3.104360552930595 0 0 0
259 2 24.940271856965097 8.999571723030357 4.6632355156894025 0 0 0
260 2 28.057856500484732 8.999561950760977 4.663268268912512 0 0 0
261 1 29.61662279052182 9.899518310017575 3.104356394969118 0 0 0
262 2 31.17539315017711 8.99956024137463 4.6632556437445665 0 0 0
263 1 32.734156845833255 9.899518117345876 3.104346318249048 0 0 0
264 2 34.29292467902163 8.999561365342498 4.663252285612603 0 0 0
267 1 3.117548548212381 12.599367819342426 3.1055388429899713 0 0 0
269 1 6.234927818806857 12.599421597830226 3.105108615532849 0 0 0
270 1 9.35235027304996 12.599389341801245 3.105040884558447 0 0 0
271 2 10.911348530677095 11.69942738922023 4.663786763010653 0 0 0
272 1 12.469958966698377 12.599376071451545 3.104765619802617 0 0 0
273 2 14.028865940414994 11.699444449063302 4.663545817554992 0 0 0
274 1 15.58754618897363 12.59938710251322 3.104499557192955 0 0 0
275 2 17.146478294325355 11.699434401108903 4.663271648776851 0 0 0
276 2 20.263954883871662 11.699422630803866 4.6630865273273825 0 0 0
277 1 18.70514147806206 12.599384497402886 3.104236153678078 0 0 0
278 2 23.381470941940606 11.699440587453495 4.6631773338460105 0 0 0
279 1 21.822737403104878 12.59938567534108 3.1041977607218865 0 0 0
280 2 26.49907069250397 11.699435268075733 4.663264054510119 0 0 0
281 1 24.940309679551717 12.599386721572744 3.1043284231108297 0 0 0
282 1 28.05785502190936 12.599386680931092 3.1043641882340003 0 0 0
283 2 29.61662791679461 11.699428531456002 4.663261875520571 0 0 0
284 1 31.17538961523722 12.59938671393508 3.1043492858537527 0 0 0
285 2 32.73415797573092 11.699429408908 4.663252751007214 0 0 0
286 1 34.292924725945255 12.59938643383076 3.104345987050952 0 0 0
287 1 1.5587837772602093 15.299234921099702 3.10575316811307 0 0 0
288 1 4.676255336313531 15.299278644394342 3.1052804833717524 0 0 0
290 1 7.793635574143682 15.299270106388414 3.1050695934613777 0 0 0
293 1 10.911108245438744 15.29920661733056 3.1049272083173496 0 0 0
294 2 12.470104955663617 14.399279348721842 4.663661203155157 0 0 0
295 1 14.028747631880021 15.299253133545793 3.10463063178705 0 0 0
296 2 15.587677100086772 14.399321108958947 4.663420225416787 0 0 0
297 1 17.146338196375545 15.299252829906589 3.1043548740409244 0 0 0
298 1 20.26394262897262 15.299253651964163 3.1041777732022258 0 0 0
299 2 18.70523151848317 14.399291056837814 4.663140076456968 0 0 0
300 1 23.381528547578757 15.299255067366866 3.104265300884677 0 0 0
301 2 21.822696560071353 14.39930041887856 4.663112042554678 0 0 0
302 1 26.49908527037974 15.299255121487272 3.1043605529305514 0 0 0
303 2 24.940271856965147 14.399308633045717 4.663235515689582 0 0 0
304 2 28.057856500484718 14.399298860776382 4.663268268912393 0 0 0
305 1 29.61662279052178 15.299255220033128 3.104356394969218 0 0 0
306 2 31.175393150177193 14.399297151390076 4.663255643744745 0 0 0
307 1 32.73415684583325 15.29925502736165 3.1043463182489948 0 0 0
308 2 34.29292467902177 14.399298275357939 4.663252285612756 0 0 0
311 1 3.117548548211994 17.99910472935776 3.1055388429899793 0 0 0
313 1 6.234927818806965 17.999158507845532 3.1051086155326746 0 0 0
314 1 9.352350273049945 17.999126251816616 3.105040884558361 0 0 0
315 2 10.91134853067707 17.099164299235596 4.663786763010663 0 0 0
316 1 12.469958966698526 17.999112981466922 3.104765619802569 0 0 0
317 2 14.028865940415013 17.099181359078827 4.663545817554965 0 0 0
318 1 15.587546188973512 17.999124012528746 3.104499557193056 0 0 0
319 2 17.146478294325398 17.09917131112443 4.663271648776955 0 0 0
320 2 20.263954883871723 17.099159540819308 4.663086527327392 0 0 0
321 1 18.70514147806213 17.99912140741842 3.104236153677997 0 0 0
322 2 23.381470941940627 17.09917749746897 4.6631773338458276 0 0 0
323 1 21.822737403104888 17.99912258535662 3.1041977607220796 0 0 0
324 2 26.499070692504024 17.099172178091273 4.663264054510132 0 0 0
325 1 24.94030967955157 17.99912363158809 3.104328423110829 0 0 0
326 1 28.05785502190937 17.999123590946347 3.1043641882339745 0 0 0
327 2 29.61662791679463 17.09916544147141 4.66326187552049 0 0 0
328 1 31.1753896152371 17.999123623950865 3.104349285853701 0 0 0
329 2 32.734157975730845 17.09916631892323 4.663252751007281 0 0 0
330 1 34.29292472594539 17.999123343846517 3.1043459870509538 0 0 0
331 1 1.5587837772589181 20.69897183111426 3.105753168112473 0 0 0
332 1 4.676255336313824 20.699015554409876 3.1052804833716983 0 0 0
334 1 7.7936355741438135 20.699007016403797 3.1050695934613275 0 0 0
337 1 10.911108245438758 20.698943527346266 3.104927208317374 0 0 0
338 2 12.470104955663736 19.79901625873728 4.663661203155259 0 0 0
339 1 14.02874763187994 20.698990043561512 3.1046306317871712 0 0 0
340 2 15.58767710008678 19.799058018974332 4.6634202254168695 0 0 0
341 1 17.14633819637564 20.69898973992203 3.1043548740407734 0 0 0
342 1 20.26394262897274 20.6989905619794 3.104177773202256 0 0 0
343 2 18.705231518483142 19.7990279668532 4.663140076457014 0 0 0
344 1 23.381528547578977 20.698991977382008 3.1042653008845704 0 0 0
345 2 21.822696560071254 19.799037328894094 4.663112042554575 0 0 0
346 1 26.49908527037964 20.698992031502822 3.1043605529306264 0 0 0
347 2 24.94027185696501 19.799045543061283 4.663235515689464 0 0 0
348 2 28.057856500484718 19.799035770791903 4.663268268912514 0 0 0
349 1 29.61662279052178 20.698992130048737 3.104356394969154 0 0 0
350 2 31.17539315017715 19.799034061405496 4.663255643744667 0 0 0
351 1 32.73415684583325 20.698991937377055 3.1043463182490054 0 0 0
352 2 34.29292467902161 19.799035185373295 4.6632522856125735 0 0 0
355 1 3.1175485482121963 23.398841639373344 3.1055388429901583 0 0 0
357 1 6.234927818807116 23.39889541786112 3.1051086155327066 0 0 0
358 1 9.352350273050046 23.398863161832168 3.1050408845582913 0 0 0
359 2 10.911348530677214 22.49890120925097 4.663786763010574 0 0 0
360 1 12.469958966698384 23.39884989148219 3.1047656198026545 0 0 0
361 2 14.028865940414942 22.49891826909418 4.663545817554937 0 0 0
362 1 15.587546188973713 23.398860922544166 3.1044995571929035 0 0 0
363 2 17.146478294325373 22.498908221139903 4.663271648776814 0 0 0
364 2 20.263954883871744 22.498896450834877 4.6630865273273505 0 0 0
365 1 18.70514147806201 23.398858317433774 3.1042361536782357 0 0 0
366 2 23.381470941940638 22.49891440748457 4.663177333845943 0 0 0
367 1 21.822737403104917 23.398859495371646 3.1041977607218416 0 0 0
368 2 26.49907069250401 22.498909088106565 4.663264054510033 0 0 0
369 1 24.940309679551753 23.398860541603405 3.104328423110877 0 0 0
370 1 28.05785502190936 23.398860500961963 3.104364188233959 0 0 0
371 2 29.61662791679459 22.49890235148686 4.663261875520502 0 0 0
372 1 31.175389615237037 23.398860533966314 3.104349285853808 0 0 0
373 2 32.734157975730824 22.498903228938754 4.663252751007276 0 0 0
374 1 34.29292472594535 23.39886025386185 3.1043459870508636 0 0 0
375 1 1.5587837772589106 26.098708741129215 3.105753168112807 0 0 0
376 1 4.676255336313808 26.098752464425363 3.10528048337183 0 0 0
378 1 7.793635574143891 26.098743926419385 3.1050695934613604 0 0 0
381 1 10.911108245438784 26.098680437361626 3.104927208317438 0 0 0
382 2 12.470104955663636 25.19875316875287 4.663661203155184 0 0 0
383 1 14.028747631880053 26.09872695357665 3.1046306317870913 0 0 0
384 2 15.587677100086653 25.198794928989876 4.663420225416836 0 0 0
385 1 17.146338196375716 26.09872664993744 3.104354874040736 0 0 0
386 1 20.26394262897288 26.09872747199508 3.1041777732024003 0 0 0
387 2 18.70523151848306 25.198764876868616 4.663140076456992 0 0 0
388 1 23.38152854757884 26.09872888739771 3.1042653008846 0 0 0
389 2 21.822696560071247 25.198774238909557 4.663112042554742 0 0 0
390 1 26.49908527037964 26.09872894151801 3.10436055293058 0 0 0
391 2 24.940271856965136 25.198782453076753 4.663235515689436 0 0 0
392 2 28.057856500484704 25.198772680807263 4.66326826891246 0 0 0
393 1 29.616622790521742 26.09872904006402 3.1043563949691144 0 0 0
394 2 31.175393150177182 25.19877097142092 4.663255643744515 0 0 0
395 1 32.7341568458331 26.09872884739241 3.104346318249116 0 0 0
396 2 34.29292467902163 25.198772095388815 4.663252285612741 0 0 0
399 1 3.1175485482124667 28.798578549388758 3.105538842990145 0 0 0
401 1 6.234927818807035 28.798632327876582 3.1051086155328234 0 0 0
402 1 9.352350273050064 28.798600071847694 3.105040884558484 0 0 0
403 2 10.911348530677106 27.898638119266547 4.663786763010608 0 0 0
404 1 12.469958966698325 28.798586801497844 3.1047656198024405 0 0 0
405 2 14.02886594041494 27.89865517910966 4.663545817555192 0 0 0
406 1 15.587546188973912 28.79859783255973 3.10449955719299 0 0 0
407 2 17.146478294325373 27.898645131155412 4.663271648776844 0 0 0
408 2 20.26395488387172 27.898633360850255 4.663086527327334 0 0 0
409 1 18.705141478062032 28.79859522744926 3.104236153678134 0 0 0
410 2 23.381470941940595 27.89865131749991 4.663177333845939 0 0 0
411 1 21.822737403104917 28.7985964053872 3.1041977607218794 0 0 0
412 2 26.499070692503967 27.898645998122138 4.663264054510003 0 0 0
413 1 24.9403096795518 28.79859745161899 3.1043284231109105 0 0 0
414 1 28.057855021909305 28.79859741097699 3.104364188234031 0 0 0
415 2 29.61662791679459 27.89863926150234 4.663261875520498 0 0 0
416 1 31.175389615237087 28.798597443981528 3.104349285853747 0 0 0
417 2 32.73415797573088 27.898640138954324 4.663252751007307 0 0 0
418 1 34.29292472594551 28.798597163877147 3.1043459870510284 0 0 0
419 1 1.5587837772616373 31.498445651146444 3.105753168113083 0 0 0
420 1 4.676255336313707 31.498489374440577 3.1052804833716348 0 0 0
422 1 7.793635574143893 31.498480836434926 3.1050695934614985 0 0 0
425 1 10.911108245438784 31.49841734737696 3.1049272083174797 0 0 0
426 2 12.470104955663656 30.598490078768243 4.66366120315508 0 0 0
427 1 14.02874763187997 31.49846386359214 3.104630631787268 0 0 0
428 2 15.587677100086763 30.598531839005293 4.663420225416734 0 0 0
429 1 17.14633819637564 31.498463559952533 3.104354874040785 0 0 0
430 1 20.263942628972735 31.498464382010415 3.104177773202146 0 0 0
431 2 18.70523151848305 30.59850178688417 4.663140076456939 0 0 0
432 1 23.381528547579194 31.498465797413104 3.104265300884667 0 0 0
433 2 21.822696560071225 30.59851114892495 4.663112042554758 0 0 0
434 1 26.499085270379723 31.498465851533517 3.104360552930572 0 0 0
435 2 24.940271856965136 30.598519363092276 4.663235515689406 0 0 0
436 2 28.05785650048482 30.598509590822935 4.663268268912494 0 0 0
437 1 29.616622790521745 31.498465950079304 3.104356394969015 0 0 0
438 2 31.175393150177143 30.598507881436465 4.6632556437446375 0 0 0
439 1 32.734156845833276 31.498465757407818 3.104346318249054 0 0 0
440 2 34.29292467902153 30.5985090054043 4.66325228561273 0 0 0
443 1 3.117548548212107 34.198315459404164 3.105538842989963 0 0 0
445 1 6.234927818807047 34.19836923789188 3.105108615532781 0 0 0
446 1 9.352350273049835 34.19833698186301 3.1050408845580653 0 0 0
447 2 10.911348530677214 33.29837502928174 4.663786763010789 0 0 0
448 1 12.46995896669858 34.198323711513154 3.104765619802423 0 0 0
449 2 14.02886594041492 33.29839208912504 4.663545817555033 0 0 0
450 1 15.587546188973779 34.19833474257484 3.1044995571929896 0 0 0
451 2 17.146478294325405 33.298382041171 4.663271648776915 0 0 0
452 2 20.263954883871723 33.298370270865675 4.663086527327441 0 0 0
453 1 18.70514147806194 34.198332137464654 3.1042361536781726 0 0 0
454 2 23.38147094194065 33.298388227515254 4.663177333845999 0 0 0
455 1 21.822737403104917 34.198333315403104 3.104197760722044 0 0 0
456 2 26.49907069250389 33.29838290813751 4.663264054510138 0 0 0
457 1 24.940309679551774 34.19833436163415 3.104328423110879 0 0 0
458 1 28.057855021909607 34.19833432099291 3.1043641882340993 0 0 0
459 2 29.61662791679465 33.29837617151776 4.663261875520625 0 0 0
460 1 31.175389615237126 34.19833435399734 3.104349285853828 0 0 0
461 2 32.73415797573099 33.29837704896966 4.663252751007378 0 0 0
462 1 34.29292472594549 34.19833407389287 3.1043459870510217 0 0 0
463 1 1.5587837772587951 36.89818256116052 3.1057531681126367 0 0 0
464 1 4.676255336313895 36.89822628445643 3.1052804833718404 0 0 0
466 1 7.793635574143835 36.898217746450264 3.1050695934613595 0 0 0
469 1 10.911108245438786 36.898154257392626 3.1049272083174153 0 0 0
470 2 12.470104955663546 35.99822698878366 4.663661203155091 0 0 0
471 1 14.028747631879876 36.89820077360788 3.1046306317873373 0 0 0
472 2 15.587677100086802 35.99826874902071 4.663420225416962 0 0 0
473 1 17.146338196375666 36.89820046996855 3.104354874040616 0 0 0
474 1 20.263942628972735 36.89820129202593 3.1041777732023452 0 0 0
475 2 18.70523151848306 35.99823869689961 4.66314007645701 0 0 0
476 1 23.381528547578878 36.89820270742887 3.1042653008844665 0 0 0
477 2 21.82269656007129 35.99824805894018 4.663112042554688 0 0 0
478 1 26.4990852703797 36.89820276154854 3.1043605529306553 0 0 0
479 2 24.94027185696519 35.9982562731077 4.663235515689628 0 0 0
480 2 28.05785650048477 35.99824650083833 4.66326826891228 0 0 0
467 2 31.175393150177122 35.998244791451874 4.663255643744383 0 0 0
468 1 29.6166227905219 36.898202860094116 3.1043563949690305 0 0 0
444 2 34.29292467902155 35.99824591541968 4.663252285612597 0 0 0
465 1 32.73415684583315 36.89820266742277 3.1043463182489575 0 0 0
442 1 3.1175485482120955 39.59805236941974 3.1055388429902155 0 0 0