LAMMPS data file via write_data, version 2 Aug 2023, timestep = 265, units = metal

37136 atoms
3 atom types

0 1247.0144872039014 xlo xhi
0 86.39570456895913 ylo yhi
0 50 zlo zhi
0 0 0 xy xz yz

Masses

1 95.94
2 32.065
3 32.065

Atoms # atomic

1 3 1.5587672812831694 0.8999552718527881 1.545439613163119 0 0 0
2 3 4.676303499293378 0.8999552718529386 1.5454396131630361 0 0 0
3 3 7.793839717302921 0.8999552718529882 1.5454396131630643 0 0 0
4 3 10.911375935312709 0.8999552718530336 1.5454396131630914 0 0 0
5 3 14.02891215332267 0.8999552718530011 1.5454396131630617 0 0 0
6 3 17.146448371332497 0.8999552718529951 1.5454396131630537 0 0 0
7 3 20.263984589342247 0.8999552718529736 1.5454396131630603 0 0 0
8 3 23.38152080735199 0.8999552718529509 1.5454396131630792 0 0 0
9 3 26.499057025361722 0.8999552718529873 1.5454396131630708 0 0 0
10 3 29.616593243371472 0.8999552718529642 1.5454396131630628 0 0 0
11 3 32.734129461381265 0.8999552718529831 1.5454396131630728 0 0 0
12 3 3.117535390287977 3.5998210396331745 1.5454396131631738 0 0 0
13 3 6.23507160829812 3.599821039632947 1.5454396131630546 0 0 0
14 3 9.352607826307809 3.5998210396329675 1.5454396131630703 0 0 0
15 3 12.470144044317717 3.599821039632973 1.5454396131630794 0 0 0
16 3 15.587680262327602 3.59982103963295 1.5454396131630703 0 0 0
17 3 18.70521648033738 3.5998210396329284 1.5454396131630692 0 0 0
18 3 21.82275269834713 3.599821039632947 1.5454396131630637 0 0 0
19 3 24.940288916356877 3.599821039632959 1.5454396131630699 0 0 0
20 3 28.057825134366603 3.5998210396329418 1.5454396131630836 0 0 0
21 3 31.175361352376363 3.5998210396329453 1.54543961316305 0 0 0
22 3 34.29289757038613 3.599821039632957 1.5454396131630799 0 0 0
23 3 1.558767281282892 6.299686807412879 1.545439613163121 0 0 0
24 3 4.676303499293373 6.299686807412955 1.5454396131630102 0 0 0
25 3 7.793839717302887 6.299686807412909 1.545439613163055 0 0 0
26 3 10.911375935312709 6.299686807412931 1.5454396131630923 0 0 0
27 3 14.028912153322672 6.299686807412933 1.5454396131630779 0 0 0
28 3 17.146448371332497 6.299686807412913 1.545439613163074 0 0 0
29 3 20.263984589342247 6.299686807412913 1.5454396131630708 0 0 0
30 3 23.38152080735199 6.299686807412913 1.5454396131630836 0 0 0
31 3 26.499057025361743 6.299686807412906 1.5454396131630632 0 0 0
32 3 29.616593243371486 6.299686807412927 1.545439613163066 0 0 0
33 3 32.73412946138127 6.299686807412907 1.5454396131630657 0 0 0
34 3 3.117535390288 8.999552575193059 1.5454396131631476 0 0 0
35 3 6.235071608298137 8.99955257519287 1.5454396131630597 0 0 0
36 3 9.352607826307784 8.999552575192899 1.5454396131630712 0 0 0
37 3 12.470144044317697 8.999552575192919 1.5454396131630828 0 0 0
38 3 15.587680262327591 8.999552575192913 1.5454396131630679 0 0 0
39 3 18.70521648033738 8.999552575192904 1.5454396131630757 0 0 0
40 3 21.822752698347138 8.999552575192896 1.5454396131630723 0 0 0
41 3 24.940288916356874 8.999552575192904 1.5454396131630788 0 0 0
42 3 28.057825134366603 8.999552575192896 1.545439613163062 0 0 0
43 3 31.17536135237638 8.9995525751929 1.5454396131630623 0 0 0
44 3 34.29289757038613 8.999552575192881 1.5454396131630748 0 0 0
45 3 1.5587672812827262 11.699418342972846 1.54543961316313 0 0 0
46 3 4.676303499293272 11.699418342972935 1.5454396131630526 0 0 0
47 3 7.793839717302888 11.699418342972853 1.545439613163055 0 0 0
48 3 10.911375935312687 11.699418342972887 1.545439613163097 0 0 0
49 3 14.02891215332268 11.699418342972898 1.5454396131630803 0 0 0
50 3 17.146448371332486 11.69941834297288 1.5454396131630783 0 0 0
51 3 20.263984589342243 11.699418342972873 1.5454396131630717 0 0 0
52 3 23.381520807351983 11.69941834297289 1.5454396131630839 0 0 0
53 3 26.499057025361743 11.699418342972866 1.5454396131630685 0 0 0
54 3 29.61659324337149 11.69941834297289 1.5454396131630794 0 0 0
55 3 32.73412946138125 11.69941834297289 1.5454396131630728 0 0 0
56 3 3.117535390287764 14.39928411075302 1.5454396131633186 0 0 0
57 3 6.235071608298063 14.399284110752843 1.5454396131630714 0 0 0
58 3 9.352607826307759 14.399284110752836 1.5454396131630708 0 0 0
59 3 12.470144044317708 14.39928411075287 1.5454396131630819 0 0 0
60 3 15.587680262327602 14.399284110752863 1.5454396131630643 0 0 0
61 3 18.705216480337384 14.399284110752863 1.54543961316307 0 0 0
62 3 21.82275269834713 14.399284110752856 1.5454396131630546 0 0 0
63 3 24.940288916356877 14.399284110752877 1.5454396131630685 0 0 0
64 3 28.057825134366603 14.39928411075287 1.5454396131630748 0 0 0
65 3 31.175361352376385 14.399284110752848 1.5454396131630708 0 0 0
66 3 34.29289757038615 14.39928411075287 1.545439613163062 0 0 0
67 3 1.558767281283024 17.099149878532522 1.5454396131632586 0 0 0
68 3 4.676303499293404 17.099149878532877 1.545439613163062 0 0 0
69 3 7.793839717302899 17.099149878532774 1.5454396131630421 0 0 0
70 3 10.911375935312693 17.099149878532817 1.5454396131630976 0 0 0
71 3 14.028912153322683 17.099149878532838 1.545439613163078 0 0 0
72 3 17.146448371332497 17.09914987853285 1.5454396131630732 0 0 0
73 3 20.263984589342243 17.099149878532828 1.5454396131630663 0 0 0
74 3 23.38152080735201 17.099149878532835 1.5454396131630883 0 0 0
75 3 26.499057025361765 17.099149878532835 1.5454396131630546 0 0 0
76 3 29.61659324337151 17.099149878532838 1.5454396131630768 0 0 0
77 3 32.73412946138127 17.099149878532835 1.5454396131630745 0 0 0
78 3 3.117535390287774 19.799015646313027 1.5454396131632484 0 0 0
79 3 6.235071608298177 19.799015646312778 1.5454396131630463 0 0 0
80 3 9.352607826307798 19.799015646312768 1.5454396131630577 0 0 0
81 3 12.470144044317736 19.799015646312828 1.5454396131630772 0 0 0
82 3 15.587680262327602 19.799015646312807 1.5454396131630572 0 0 0
83 3 18.705216480337373 19.799015646312807 1.545439613163074 0 0 0
84 3 21.822752698347138 19.799015646312814 1.5454396131630788 0 0 0
85 3 24.940288916356874 19.799015646312807 1.5454396131630725 0 0 0
86 3 28.05782513436662 19.79901564631282 1.5454396131630719 0 0 0
87 3 31.175361352376385 19.799015646312814 1.5454396131630714 0 0 0
88 3 34.29289757038615 19.79901564631282 1.54543961316307 0 0 0
89 3 1.55876728128316 22.498881414092395 1.5454396131630719 0 0 0
90 3 4.676303499293317 22.49888141409294 1.5454396131630883 0 0 0
91 3 7.793839717302862 22.498881414092747 1.5454396131630657 0 0 0
92 3 10.911375935312726 22.498881414092764 1.5454396131631045 0 0 0
93 3 14.02891215332271 22.498881414092793 1.5454396131630834 0 0 0
94 3 17.146448371332514 22.498881414092793 1.5454396131630788 0 0 0
95 3 20.26398458934226 22.498881414092793 1.5454396131630828 0 0 0
96 3 23.38152080735201 22.498881414092793 1.5454396131630936 0 0 0
97 3 26.499057025361743 22.498881414092764 1.5454396131630757 0 0 0
98 3 29.61659324337151 22.498881414092793 1.5454396131630823 0 0 0
99 3 32.73412946138128 22.49888141409278 1.5454396131630677 0 0 0
100 3 3.1175353902880145 25.19874718187298 1.5454396131632138 0 0 0
101 3 6.235071608298031 25.198747181872744 1.5454396131630388 0 0 0
102 3 9.352607826307748 25.19874718187276 1.5454396131630774 0 0 0
103 3 12.470144044317742 25.198747181872776 1.545439613163081 0 0 0
104 3 15.587680262327622 25.19874718187279 1.5454396131630672 0 0 0
105 3 18.70521648033739 25.198747181872776 1.5454396131630668 0 0 0
106 3 21.82275269834712 25.198747181872744 1.5454396131630566 0 0 0
107 3 24.940288916356877 25.198747181872776 1.5454396131630734 0 0 0
108 3 28.057825134366624 25.19874718187276 1.5454396131630557 0 0 0
109 3 31.175361352376385 25.19874718187279 1.5454396131630623 0 0 0
110 3 34.29289757038615 25.198747181872776 1.5454396131630779 0 0 0
111 3 1.558767281282941 27.89861294965269 1.5454396131631236 0 0 0
112 3 4.676303499293247 27.898612949652758 1.545439613163112 0 0 0
113 3 7.793839717302844 27.89861294965269 1.5454396131630566 0 0 0
114 3 10.91137593531277 27.898612949652744 1.545439613163104 0 0 0
115 3 14.028912153322729 27.89861294965272 1.5454396131630799 0 0 0
116 3 17.146448371332497 27.898612949652705 1.5454396131630703 0 0 0
117 3 20.263984589342268 27.89861294965273 1.5454396131630757 0 0 0
118 3 23.38152080735199 27.89861294965273 1.5454396131630694 0 0 0
119 3 26.499057025361772 27.898612949652705 1.5454396131630763 0 0 0
120 3 29.61659324337149 27.89861294965272 1.545439613163066 0 0 0
121 3 32.73412946138126 27.898612949652705 1.545439613163066 0 0 0
122 3 3.11753539028797 30.59847871743277 1.5454396131632169 0 0 0
123 3 6.235071608298026 30.59847871743263 1.5454396131630115 0 0 0
124 3 9.352607826307759 30.598478717432684 1.5454396131630683 0 0 0
125 3 12.470144044317758 30.598478717432688 1.5454396131630646 0 0 0
126 3 15.587680262327622 30.598478717432645 1.5454396131630521 0 0 0
127 3 18.7052164803374 30.598478717432673 1.5454396131630634 0 0 0
128 3 21.82275269834715 30.59847871743266 1.545439613163051 0 0 0
129 3 24.940288916356895 30.598478717432673 1.5454396131630463 0 0 0
130 3 28.057825134366624 30.598478717432684 1.5454396131630574 0 0 0
131 3 31.17536135237638 30.598478717432684 1.545439613163055 0 0 0
132 3 34.29289757038613 30.598478717432673 1.5454396131630652 0 0 0
133 3 1.5587672812831321 33.298344485212546 1.5454396131630006 0 0 0
134 3 4.676303499293111 33.2983444852126 1.545439613163102 0 0 0
135 3 7.793839717302844 33.29834448521264 1.5454396131630392 0 0 0
136 3 10.911375935312762 33.298344485212695 1.5454396131631016 0 0 0
137 3 14.028912153322711 33.298344485212674 1.5454396131630663 0 0 0
138 3 17.146448371332514 33.298344485212674 1.5454396131630606 0 0 0
139 3 20.263984589342286 33.298344485212674 1.5454396131630643 0 0 0
140 3 23.381520807352004 33.298344485212674 1.5454396131630708 0 0 0
141 3 26.499057025361733 33.298344485212674 1.5454396131630708 0 0 0
142 3 29.61659324337151 33.29834448521266 1.5454396131630581 0 0 0
143 3 32.734129461381244 33.29834448521266 1.5454396131630805 0 0 0
144 3 3.117535390287994 35.99821025299262 1.5454396131632824 0 0 0
145 3 6.235071608298061 35.998210252992564 1.5454396131630137 0 0 0
146 3 9.352607826307748 35.99821025299261 1.5454396131630561 0 0 0
147 3 12.470144044317747 35.99821025299262 1.5454396131630714 0 0 0
148 3 15.587680262327638 35.99821025299261 1.5454396131630577 0 0 0
149 3 18.705216480337388 35.99821025299261 1.5454396131630628 0 0 0
150 3 21.82275269834712 35.99821025299261 1.5454396131630643 0 0 0
151 3 24.940288916356877 35.99821025299261 1.5454396131630588 0 0 0
152 3 28.05782513436662 35.99821025299261 1.5454396131630739 0 0 0
153 3 31.175361352376402 35.99821025299261 1.5454396131630572 0 0 0
154 3 34.29289757038615 35.99821025299261 1.545439613163061 0 0 0
155 3 1.5587672812830489 38.6980760207727 1.5454396131631591 0 0 0
156 3 4.676303499293254 38.69807602077241 1.5454396131631176 0 0 0
157 3 7.793839717302854 38.69807602077254 1.545439613163038 0 0 0
158 3 10.911375935312742 38.69807602077259 1.5454396131630976 0 0 0
159 3 14.028912153322702 38.698076020772575 1.5454396131630768 0 0 0
160 3 17.146448371332486 38.698076020772525 1.5454396131630643 0 0 0
161 3 20.26398458934226 38.69807602077254 1.5454396131630606 0 0 0
162 3 23.38152080735201 38.69807602077254 1.5454396131630794 0 0 0
163 3 26.499057025361765 38.698076020772554 1.5454396131630728 0 0 0
164 3 29.61659324337153 38.69807602077254 1.545439613163066 0 0 0
165 3 32.73412946138126 38.69807602077254 1.5454396131630668 0 0 0
166 3 3.1175353902877587 41.39794178855267 1.5454396131632453 0 0 0
167 3 6.235071608298177 41.397941788552494 1.5454396131630155 0 0 0
168 3 9.352607826307805 41.397941788552544 1.5454396131630908 0 0 0
169 3 12.470144044317736 41.39794178855257 1.5454396131630854 0 0 0
170 3 15.587680262327591 41.397941788552515 1.5454396131630739 0 0 0
171 3 18.70521648033738 41.3979417885525 1.5454396131630908 0 0 0
172 3 21.82275269834712 41.39794178855253 1.545439613163087 0 0 0
173 3 24.940288916356877 41.397941788552515 1.5454396131630914 0 0 0
174 3 28.057825134366624 41.397941788552544 1.5454396131630923 0 0 0
175 3 31.175361352376402 41.39794178855253 1.5454396131630879 0 0 0
176 3 34.29289757038614 41.39794178855256 1.545439613163106 0 0 0
177 2 1.5587672812832114 0.8999552718527711 4.663253720170172 0 0 0
178 2 4.676303499293404 0.8999552718529287 4.6632537201702755 0 0 0
179 1 3.1175353902881997 1.7999105627724907 3.1043466666666744 0 0 0
180 2 7.7938397173029115 0.8999552718529894 4.663253720170279 0 0 0
181 1 6.235071608298147 1.7999105627726388 3.1043466666666664 0 0 0
182 1 9.352607826307771 1.7999105627726328 3.1043466666666757 0 0 0
183 2 10.911375935312693 0.8999552718530246 4.6632537201702515 0 0 0
184 1 12.470144044317701 1.7999105627725815 3.1043466666666717 0 0 0
185 2 14.02891215332267 0.8999552718530058 4.663253720170267 0 0 0
186 1 15.587680262327591 1.7999105627725926 3.104346666666669 0 0 0
187 2 17.146448371332497 0.8999552718529968 4.663253720170293 0 0 0
188 2 20.263984589342247 0.899955271852978 4.663253720170268 0 0 0
189 1 18.705216480337373 1.7999105627725849 3.104346666666676 0 0 0
190 2 23.381520807352004 0.8999552718529411 4.663253720170254 0 0 0
191 1 21.82275269834712 1.7999105627726064 3.1043466666666655 0 0 0
192 2 26.49905702536171 0.8999552718529934 4.663253720170278 0 0 0
193 1 24.940288916356852 1.7999105627726038 3.1043466666666775 0 0 0
194 1 28.057825134366624 1.7999105627725909 3.104346666666672 0 0 0
195 2 29.61659324337149 0.8999552718529639 4.66325372017028 0 0 0
196 1 31.175361352376385 1.7999105627725858 3.1043466666666797 0 0 0
197 2 32.73412946138127 0.8999552718530024 4.663253720170288 0 0 0
198 1 34.292897570386096 1.7999105627726055 3.104346666666669 0 0 0
199 1 1.558767281283147 4.499776330552691 3.104346666666659 0 0 0
200 1 4.676303499293223 4.499776330552563 3.1043466666666633 0 0 0
201 2 3.1175353902879923 3.599821039633173 4.663253720170162 0 0 0
202 1 7.793839717302934 4.4997763305525975 3.1043466666666815 0 0 0
203 2 6.23507160829811 3.5998210396329315 4.663253720170278 0 0 0
204 2 9.352607826307809 3.599821039632974 4.663253720170294 0 0 0
205 1 10.911375935312742 4.499776330552527 3.1043466666666792 0 0 0
206 2 12.470144044317712 3.5998210396329644 4.663253720170261 0 0 0
207 1 14.02891215332265 4.499776330552546 3.104346666666676 0 0 0
208 2 15.587680262327591 3.599821039632945 4.663253720170279 0 0 0
209 1 17.146448371332486 4.4997763305525496 3.1043466666666797 0 0 0
210 1 20.26398458934223 4.499776330552551 3.1043466666666815 0 0 0
211 2 18.70521648033738 3.5998210396329315 4.663253720170278 0 0 0
212 1 23.38152080735199 4.499776330552555 3.1043466666666735 0 0 0
213 2 21.822752698347138 3.599821039632949 4.66325372017028 0 0 0
214 1 26.499057025361743 4.499776330552571 3.104346666666681 0 0 0
215 2 24.940288916356895 3.5998210396329644 4.663253720170282 0 0 0
216 2 28.057825134366603 3.5998210396329298 4.663253720170255 0 0 0
217 1 29.61659324337149 4.499776330552545 3.104346666666665 0 0 0
218 2 31.175361352376363 3.599821039632945 4.663253720170293 0 0 0
219 1 32.73412946138127 4.499776330552549 3.10434666666668 0 0 0
220 2 34.29289757038613 3.59982103963295 4.663253720170255 0 0 0
221 2 1.5587672812828985 6.299686807412889 4.663253720170208 0 0 0
222 2 4.676303499293369 6.29968680741294 4.663253720170331 0 0 0
223 1 3.117535390288134 7.199642098332419 3.1043466666666686 0 0 0
224 2 7.793839717302879 6.299686807412913 4.663253720170297 0 0 0
225 1 6.235071608298152 7.1996420983325775 3.104346666666679 0 0 0
226 1 9.352607826307768 7.199642098332526 3.1043466666666766 0 0 0
227 2 10.911375935312702 6.299686807412931 4.663253720170247 0 0 0
228 1 12.470144044317692 7.199642098332512 3.1043466666666717 0 0 0
229 2 14.028912153322672 6.299686807412927 4.663253720170269 0 0 0
230 1 15.587680262327588 7.199642098332543 3.1043466666666752 0 0 0
231 2 17.146448371332497 6.299686807412913 4.663253720170276 0 0 0
232 2 20.263984589342247 6.299686807412909 4.663253720170278 0 0 0
233 1 18.705216480337373 7.199642098332543 3.1043466666666775 0 0 0
234 2 23.38152080735201 6.299686807412913 4.663253720170267 0 0 0
235 1 21.82275269834715 7.19964209833255 3.1043466666666757 0 0 0
236 2 26.499057025361743 6.299686807412906 4.66325372017028 0 0 0
237 1 24.940288916356874 7.199642098332532 3.104346666666676 0 0 0
238 1 28.057825134366603 7.199642098332532 3.104346666666678 0 0 0
239 2 29.616593243371472 6.299686807412916 4.6632537201702755 0 0 0
240 1 31.175361352376385 7.199642098332539 3.104346666666672 0 0 0
241 2 32.73412946138126 6.299686807412909 4.66325372017028 0 0 0
242 1 34.29289757038613 7.199642098332526 3.104346666666672 0 0 0
243 1 1.5587672812831435 9.89950786611269 3.1043466666666952 0 0 0
244 1 4.676303499293216 9.899507866112481 3.104346666666675 0 0 0
245 2 3.1175353902880096 8.999552575193057 4.663253720170213 0 0 0
246 1 7.793839717302934 9.89950786611255 3.1043466666666775 0 0 0
247 2 6.235071608298132 8.999552575192874 4.663253720170288 0 0 0
248 2 9.352607826307787 8.999552575192899 4.663253720170272 0 0 0
249 1 10.911375935312707 9.899507866112488 3.1043466666666717 0 0 0
250 2 12.470144044317701 8.999552575192926 4.663253720170251 0 0 0
251 1 14.028912153322642 9.899507866112513 3.104346666666673 0 0 0
252 2 15.587680262327591 8.999552575192904 4.6632537201702755 0 0 0
253 1 17.146448371332475 9.899507866112529 3.1043466666666735 0 0 0
254 1 20.263984589342243 9.899507866112529 3.1043466666666744 0 0 0
255 2 18.705216480337373 8.999552575192915 4.663253720170274 0 0 0
256 1 23.38152080735199 9.89950786611252 3.1043466666666757 0 0 0
257 2 21.82275269834713 8.999552575192897 4.6632537201702755 0 0 0
258 1 26.499057025361733 9.899507866112547 3.10434666666667 0 0 0
259 2 24.940288916356874 8.999552575192904 4.66325372017027 0 0 0
260 2 28.057825134366603 8.999552575192897 4.663253720170275 0 0 0
261 1 29.61659324337149 9.899507866112529 3.104346666666672 0 0 0
262 2 31.17536135237638 8.99955257519291 4.663253720170274 0 0 0
263 1 32.73412946138127 9.899507866112522 3.104346666666668 0 0 0
264 2 34.29289757038613 8.99955257519287 4.663253720170258 0 0 0
265 2 1.558767281282705 11.69941834297288 4.6632537201702355 0 0 0
266 2 4.676303499293288 11.699418342972935 4.663253720170302 0 0 0
267 1 3.11753539028798 12.59937363389234 3.1043466666667223 0 0 0
268 2 7.793839717302887 11.699418342972853 4.663253720170282 0 0 0
269 1 6.235071608298132 12.599373633892542 3.1043466666666664 0 0 0
270 1 9.352607826307748 12.59937363389247 3.1043466666666744 0 0 0
271 2 10.911375935312687 11.699418342972894 4.663253720170243 0 0 0
272 1 12.470144044317667 12.599373633892455 3.1043466666666744 0 0 0
273 2 14.028912153322679 11.699418342972887 4.663253720170259 0 0 0
274 1 15.587680262327588 12.599373633892476 3.1043466666666744 0 0 0
275 2 17.146448371332497 11.69941834297288 4.663253720170268 0 0 0
276 2 20.263984589342247 11.699418342972873 4.663253720170265 0 0 0
277 1 18.705216480337373 12.599373633892503 3.1043466666666704 0 0 0
278 2 23.381520807351983 11.69941834297289 4.663253720170247 0 0 0
279 1 21.822752698347138 12.599373633892494 3.104346666666665 0 0 0
280 2 26.499057025361743 11.69941834297286 4.663253720170276 0 0 0
281 1 24.94028891635686 12.599373633892498 3.1043466666666673 0 0 0
282 1 28.057825134366624 12.599373633892503 3.104346666666676 0 0 0
283 2 29.61659324337149 11.69941834297288 4.6632537201702595 0 0 0
284 1 31.17536135237638 12.599373633892517 3.104346666666672 0 0 0
285 2 32.73412946138125 11.69941834297289 4.663253720170259 0 0 0
286 1 34.292897570386074 12.599373633892503 3.1043466666666664 0 0 0
287 1 1.5587672812832012 15.299239401672576 3.1043466666667254 0 0 0
288 1 4.676303499293117 15.299239401672411 3.104346666666735 0 0 0
289 2 3.1175353902878458 14.399284110752918 4.663253720170245 0 0 0
290 1 7.793839717302923 15.299239401672459 3.1043466666666726 0 0 0
291 2 6.235071608298077 14.399284110752836 4.663253720170291 0 0 0
292 2 9.352607826307768 14.399284110752836 4.663253720170269 0 0 0
293 1 10.911375935312721 15.299239401672418 3.1043466666666664 0 0 0
294 2 12.470144044317701 14.39928411075287 4.663253720170257 0 0 0
295 1 14.028912153322661 15.299239401672443 3.104346666666675 0 0 0
296 2 15.587680262327613 14.399284110752856 4.663253720170275 0 0 0
297 1 17.146448371332497 15.29923940167248 3.1043466666666637 0 0 0
298 1 20.263984589342247 15.29923940167248 3.1043466666666752 0 0 0
299 2 18.70521648033738 14.39928411075287 4.663253720170266 0 0 0
300 1 23.38152080735201 15.299239401672452 3.1043466666666673 0 0 0
301 2 21.822752698347138 14.399284110752863 4.663253720170279 0 0 0
302 1 26.49905702536171 15.29923940167249 3.1043466666666673 0 0 0
303 2 24.940288916356877 14.399284110752884 4.663253720170263 0 0 0
304 2 28.057825134366603 14.399284110752863 4.663253720170266 0 0 0
305 1 29.61659324337149 15.299239401672459 3.1043466666666726 0 0 0
306 2 31.175361352376385 14.399284110752848 4.66325372017027 0 0 0
307 1 32.73412946138127 15.29923940167248 3.1043466666666686 0 0 0
308 2 34.29289757038615 14.39928411075287 4.663253720170276 0 0 0
309 2 1.5587672812830105 17.099149878532685 4.663253720170266 0 0 0
310 2 4.676303499293404 17.099149878532884 4.663253720170299 0 0 0
311 1 3.117535390288166 17.999105169452346 3.104346666666709 0 0 0
312 2 7.793839717302896 17.099149878532774 4.663253720170289 0 0 0
313 1 6.235071608298192 17.999105169452488 3.104346666666665 0 0 0
314 1 9.352607826307743 17.999105169452413 3.1043466666666695 0 0 0
315 2 10.911375935312702 17.099149878532817 4.663253720170233 0 0 0
316 1 12.470144044317701 17.999105169452406 3.104346666666664 0 0 0
317 2 14.028912153322679 17.099149878532835 4.663253720170261 0 0 0
318 1 15.587680262327602 17.99910516945245 3.1043466666666655 0 0 0
319 2 17.146448371332497 17.09914987853285 4.6632537201702515 0 0 0
320 2 20.26398458934226 17.099149878532838 4.663253720170277 0 0 0
321 1 18.70521648033738 17.999105169452456 3.1043466666666713 0 0 0
322 2 23.38152080735201 17.099149878532835 4.663253720170262 0 0 0
323 1 21.82275269834715 17.999105169452463 3.104346666666669 0 0 0
324 2 26.499057025361765 17.099149878532835 4.6632537201702755 0 0 0
325 1 24.940288916356877 17.99910516945245 3.1043466666666775 0 0 0
326 1 28.05782513436664 17.999105169452456 3.104346666666669 0 0 0
327 2 29.616593243371504 17.099149878532835 4.663253720170266 0 0 0
328 1 31.175361352376402 17.999105169452495 3.1043466666666686 0 0 0
329 2 32.73412946138126 17.099149878532835 4.663253720170268 0 0 0
330 1 34.292897570386096 17.999105169452474 3.104346666666671 0 0 0
331 1 1.5587672812825735 20.698970937232147 3.1043466666666695 0 0 0
332 1 4.676303499293172 20.698970937232485 3.1043466666666744 0 0 0
333 2 3.1175353902877934 19.799015646313027 4.663253720170095 0 0 0
334 1 7.793839717302968 20.698970937232428 3.1043466666666673 0 0 0
335 2 6.235071608298177 19.79901564631277 4.663253720170285 0 0 0
336 2 9.352607826307798 19.79901564631277 4.663253720170271 0 0 0
337 1 10.911375935312742 20.69897093723236 3.104346666666665 0 0 0
338 2 12.470144044317731 19.799015646312828 4.663253720170264 0 0 0
339 1 14.02891215332269 20.69897093723242 3.104346666666672 0 0 0
340 2 15.587680262327602 19.799015646312807 4.663253720170275 0 0 0
341 1 17.146448371332497 20.698970937232442 3.1043466666666717 0 0 0
342 1 20.263984589342243 20.69897093723244 3.1043466666666744 0 0 0
343 2 18.705216480337366 19.799015646312807 4.663253720170265 0 0 0
344 1 23.38152080735201 20.698970937232428 3.10434666666667 0 0 0
345 2 21.82275269834715 19.799015646312807 4.663253720170258 0 0 0
346 1 26.499057025361743 20.698970937232463 3.1043466666666775 0 0 0
347 2 24.940288916356877 19.799015646312814 4.663253720170272 0 0 0
348 2 28.05782513436662 19.799015646312807 4.663253720170257 0 0 0
349 1 29.61659324337151 20.698970937232403 3.1043466666666713 0 0 0
350 2 31.17536135237638 19.799015646312807 4.663253720170266 0 0 0
351 1 32.73412946138127 20.69897093723244 3.1043466666666677 0 0 0
352 2 34.29289757038615 19.799015646312814 4.663253720170254 0 0 0
353 2 1.5587672812831257 22.498881414092363 4.663253720170279 0 0 0
354 2 4.676303499293326 22.498881414092953 4.663253720170268 0 0 0
355 1 3.1175353902881042 23.398836705012247 3.104346666666661 0 0 0
356 2 7.793839717302869 22.498881414092747 4.663253720170273 0 0 0
357 1 6.235071608298136 23.398836705012478 3.104346666666682 0 0 0
358 1 9.352607826307766 23.39883670501233 3.104346666666671 0 0 0
359 2 10.911375935312742 22.49888141409278 4.663253720170229 0 0 0
360 1 12.470144044317736 23.39883670501233 3.1043466666666726 0 0 0
361 2 14.0289121533227 22.49888141409278 4.663253720170249 0 0 0
362 1 15.587680262327602 23.398836705012396 3.104346666666668 0 0 0
363 2 17.146448371332525 22.498881414092793 4.663253720170271 0 0 0
364 2 20.263984589342282 22.498881414092793 4.663253720170259 0 0 0
365 1 18.705216480337427 23.398836705012368 3.10434666666668 0 0 0
366 2 23.38152080735199 22.498881414092793 4.66325372017025 0 0 0
367 1 21.822752698347138 23.398836705012368 3.10434666666667 0 0 0
368 2 26.499057025361743 22.49888141409278 4.663253720170272 0 0 0
369 1 24.940288916356895 23.398836705012354 3.104346666666667 0 0 0
370 1 28.057825134366635 23.398836705012368 3.1043466666666624 0 0 0
371 2 29.61659324337151 22.498881414092775 4.663253720170259 0 0 0
372 1 31.175361352376385 23.398836705012368 3.1043466666666686 0 0 0
373 2 32.73412946138128 22.49888141409278 4.66325372017027 0 0 0
374 1 34.29289757038614 23.398836705012396 3.104346666666668 0 0 0
375 1 1.5587672812831654 26.09870247279239 3.1043466666666624 0 0 0
376 1 4.676303499293173 26.09870247279243 3.104346666666663 0 0 0
377 2 3.1175353902879896 25.198747181872967 4.663253720170074 0 0 0
378 1 7.793839717302854 26.098702472792322 3.1043466666666624 0 0 0
379 2 6.235071608298033 25.198747181872744 4.663253720170306 0 0 0
380 2 9.352607826307743 25.19874718187276 4.663253720170265 0 0 0
381 1 10.91137593531274 26.09870247279228 3.1043466666666704 0 0 0
382 2 12.47014404431775 25.198747181872776 4.663253720170262 0 0 0
383 1 14.028912153322691 26.09870247279236 3.104346666666673 0 0 0
384 2 15.587680262327622 25.19874718187276 4.663253720170271 0 0 0
385 1 17.146448371332514 26.09870247279239 3.104346666666669 0 0 0
386 1 20.263984589342243 26.09870247279236 3.1043466666666673 0 0 0
387 2 18.705216480337373 25.198747181872776 4.6632537201702755 0 0 0
388 1 23.38152080735202 26.098702472792336 3.1043466666666735 0 0 0
389 2 21.82275269834712 25.198747181872776 4.663253720170277 0 0 0
390 1 26.499057025361733 26.098702472792375 3.104346666666671 0 0 0
391 2 24.940288916356877 25.19874718187273 4.663253720170263 0 0 0
392 2 28.05782513436662 25.19874718187276 4.66325372017026 0 0 0
393 1 29.616593243371526 26.098702472792322 3.1043466666666633 0 0 0
394 2 31.17536135237638 25.198747181872776 4.663253720170265 0 0 0
395 1 32.73412946138127 26.09870247279236 3.1043466666666695 0 0 0
396 2 34.29289757038615 25.198747181872776 4.663253720170257 0 0 0
397 2 1.5587672812829354 27.898612949652676 4.663253720170159 0 0 0
398 2 4.676303499293226 27.898612949652758 4.663253720170239 0 0 0
399 1 3.1175353902881064 28.79856824057214 3.1043466666666593 0 0 0
400 2 7.793839717302862 27.898612949652705 4.663253720170277 0 0 0
401 1 6.235071608298095 28.798568240572347 3.1043466666666717 0 0 0
402 1 9.352607826307768 28.798568240572266 3.1043466666666752 0 0 0
403 2 10.911375935312758 27.89861294965272 4.663253720170243 0 0 0
404 1 12.47014404431776 28.798568240572266 3.1043466666666744 0 0 0
405 2 14.028912153322741 27.898612949652744 4.66325372017025 0 0 0
406 1 15.587680262327638 28.798568240572347 3.104346666666663 0 0 0
407 2 17.146448371332514 27.898612949652705 4.663253720170259 0 0 0
408 2 20.26398458934226 27.89861294965272 4.663253720170255 0 0 0
409 1 18.70521648033739 28.798568240572347 3.104346666666669 0 0 0
410 2 23.38152080735199 27.89861294965272 4.6632537201702675 0 0 0
411 1 21.822752698347138 28.798568240572333 3.1043466666666646 0 0 0
412 2 26.499057025361783 27.89861294965273 4.663253720170262 0 0 0
413 1 24.940288916356895 28.798568240572333 3.1043466666666677 0 0 0
414 1 28.057825134366638 28.798568240572294 3.104346666666667 0 0 0
415 2 29.61659324337149 27.89861294965272 4.66325372017026 0 0 0
416 1 31.175361352376385 28.798568240572376 3.1043466666666695 0 0 0
417 2 32.73412946138127 27.898612949652705 4.663253720170266 0 0 0
418 1 34.292897570386096 28.798568240572333 3.1043466666666646 0 0 0
419 1 1.558767281283111 31.498434008352355 3.1043466666666792 0 0 0
420 1 4.6763034992931125 31.498434008352245 3.104346666666642 0 0 0
421 2 3.1175353902879848 30.598478717432783 4.663253720170104 0 0 0
422 1 7.793839717302854 31.49843400835229 3.10434666666666 0 0 0
423 2 6.235071608298043 30.598478717432645 4.663253720170286 0 0 0
424 2 9.352607826307743 30.598478717432698 4.663253720170252 0 0 0
425 1 10.911375935312751 31.49843400835226 3.1043466666666686 0 0 0
426 2 12.470144044317772 30.59847871743266 4.663253720170268 0 0 0
427 1 14.02891215332272 31.498434008352287 3.104346666666664 0 0 0
428 2 15.587680262327638 30.59847871743266 4.663253720170283 0 0 0
429 1 17.146448371332525 31.498434008352312 3.104346666666669 0 0 0
430 1 20.263984589342282 31.498434008352287 3.1043466666666744 0 0 0
431 2 18.705216480337388 30.598478717432673 4.6632537201702835 0 0 0
432 1 23.38152080735203 31.49843400835229 3.1043466666666704 0 0 0
433 2 21.82275269834716 30.598478717432645 4.663253720170281 0 0 0
434 1 26.49905702536175 31.49843400835229 3.1043466666666704 0 0 0
435 2 24.940288916356874 30.598478717432673 4.663253720170279 0 0 0
436 2 28.057825134366638 30.598478717432684 4.663253720170284 0 0 0
437 1 29.61659324337151 31.49843400835226 3.10434666666667 0 0 0
438 2 31.17536135237638 30.598478717432684 4.6632537201702755 0 0 0
439 1 32.73412946138131 31.498434008352287 3.1043466666666686 0 0 0
440 2 34.29289757038613 30.598478717432673 4.663253720170264 0 0 0
441 2 1.5587672812831186 33.29834448521253 4.663253720170352 0 0 0
442 2 4.6763034992931605 33.298344485212546 4.663253720170216 0 0 0