LAMMPS data file via write_data, version 2 Aug 2023, timestep = 1089, units = metal

38272 atoms
3 atom types

0 1247.016589270978 xlo xhi
0 86.39585267263286 ylo yhi
0 50 zlo zhi
0 0 0 xy xz yz

Masses

1 95.94
2 32.065
3 32.065

Atoms # atomic

1 3 1.5586956211212797 0.8999305022682975 1.54568965694502 0 0 0
2 3 4.67614496265817 0.8999604064585892 1.5457211052410447 0 0 0
3 3 7.793713483175837 0.8999580310932814 1.5455968650211103 0 0 0
4 3 10.911277226830087 0.8999590371073743 1.5455127018441603 0 0 0
5 3 14.028835159205077 0.899958766594025 1.545454211919133 0 0 0
6 3 17.146392360531774 0.8999587487590363 1.5454129842389046 0 0 0
7 3 20.26394734440411 0.8999581826157919 1.545393658359235 0 0 0
8 3 23.381500895521285 0.899958126612671 1.5453881944858185 0 0 0
9 3 26.49905346499847 0.8999572758020168 1.545393743970147 0 0 0
10 3 29.61660895601175 0.8999591287882516 1.5454153375013748 0 0 0
11 3 32.734151859276665 0.8999570569893982 1.5454475746736573 0 0 0
12 3 3.117395743340878 3.599800967348744 1.5457912399985647 0 0 0
13 3 6.234943926727755 3.599828447759558 1.5456453586395589 0 0 0
14 3 9.352498129265873 3.5998293929138563 1.5455506041565044 0 0 0
15 3 12.470058028603123 3.5998287832319895 1.5454803957687626 0 0 0
16 3 15.587614059856305 3.5998288959845404 1.545431103018834 0 0 0
17 3 18.705170588119408 3.5998284052393936 1.5454010392300122 0 0 0
18 3 21.822724050237706 3.59982910380915 1.5453895091365701 0 0 0
19 3 24.940277036082435 3.599827701716528 1.5453897545493147 0 0 0
20 3 28.05783193271616 3.5998288722572935 1.5454018076296627 0 0 0
21 3 31.175382769960212 3.599828712602252 1.5454322519808072 0 0 0
22 3 34.29292007754591 3.5998273260490032 1.5454575229163814 0 0 0
23 3 1.5586956211219256 6.299671294306928 1.5456896569446004 0 0 0
24 3 4.676144962658152 6.2997011984983 1.5457211052406263 0 0 0
25 3 7.793713483175642 6.299698823133091 1.5455968650210632 0 0 0
26 3 10.911277226829892 6.299699829146799 1.5455127018438544 0 0 0
27 3 14.028835159205414 6.299699558633559 1.5454542119192722 0 0 0
28 3 17.146392360531866 6.299699540798703 1.5454129842388469 0 0 0
29 3 20.263947344404087 6.299698974655511 1.5453936583592114 0 0 0
30 3 23.381500895521413 6.299698918652256 1.545388194485693 0 0 0
31 3 26.49905346499865 6.299698067841612 1.545393743970001 0 0 0
32 3 29.616608956011603 6.299699920827793 1.5454153375012243 0 0 0
33 3 32.73415185927662 6.299697849028933 1.5454475746737424 0 0 0
34 3 3.1173957433415445 8.999541759388674 1.5457912399984235 0 0 0
35 3 6.234943926728326 8.999569239798873 1.5456453586401153 0 0 0
36 3 9.352498129266479 8.999570184953287 1.5455506041564029 0 0 0
37 3 12.470058028603194 8.999569575271666 1.5454803957688557 0 0 0
38 3 15.587614059856246 8.999569688023975 1.545431103018901 0 0 0
39 3 18.70517058811927 8.999569197278788 1.5454010392298947 0 0 0
40 3 21.822724050237692 8.999569895848765 1.5453895091365422 0 0 0
41 3 24.940277036082453 8.999568493756037 1.5453897545494675 0 0 0
42 3 28.057831932716013 8.999569664296779 1.5454018076296034 0 0 0
43 3 31.175382769960237 8.999569504641594 1.5454322519808266 0 0 0
44 3 34.29292007754571 8.999568118088574 1.5454575229163225 0 0 0
45 3 1.5586956211203462 11.699412086345028 1.5456896569448066 0 0 0
46 3 4.676144962657921 11.699441990538148 1.5457211052405695 0 0 0
47 3 7.7937134831756625 11.699439615172803 1.5455968650212868 0 0 0
48 3 10.91127722682991 11.699440621186517 1.5455127018441357 0 0 0
49 3 14.028835159205325 11.699440350673141 1.5454542119192736 0 0 0
50 3 17.146392360532023 11.699440332838169 1.5454129842388105 0 0 0
51 3 20.263947344404208 11.699439766695148 1.5453936583591787 0 0 0
52 3 23.381500895521356 11.699439710691856 1.5453881944857941 0 0 0
53 3 26.49905346499865 11.69943885988119 1.545393743969953 0 0 0
54 3 29.61660895601171 11.699440712867416 1.5454153375012936 0 0 0
55 3 32.734151859276615 11.699438641068555 1.5454475746736163 0 0 0
56 3 3.1173957433414614 14.399282551428202 1.5457912399981195 0 0 0
57 3 6.234943926727962 14.39931003183855 1.5456453586400805 0 0 0
58 3 9.352498129266236 14.399310976992961 1.545550604156385 0 0 0
59 3 12.47005802860307 14.399310367311312 1.5454803957688554 0 0 0
60 3 15.587614059856246 14.39931048006366 1.5454311030188272 0 0 0
61 3 18.70517058811932 14.399309989318388 1.5454010392299264 0 0 0
62 3 21.822724050237778 14.399310687888228 1.5453895091365744 0 0 0
63 3 24.940277036082414 14.399309285795495 1.5453897545494237 0 0 0
64 3 28.0578319327159 14.399310456336462 1.5454018076296199 0 0 0
65 3 31.17538276996023 14.399310296681262 1.545432251980758 0 0 0
66 3 34.2929200775457 14.399308910128084 1.5454575229163836 0 0 0
67 3 1.55869562112169 17.099152878385116 1.5456896569452654 0 0 0
68 3 4.676144962657667 17.099182782577927 1.5457211052407318 0 0 0
69 3 7.79371348317529 17.099180407212277 1.545596865021207 0 0 0
70 3 10.911277226830002 17.09918141322613 1.5455127018440324 0 0 0
71 3 14.028835159205228 17.09918114271278 1.5454542119192443 0 0 0
72 3 17.146392360531884 17.09918112487775 1.5454129842389162 0 0 0
73 3 20.263947344404208 17.09918055873463 1.5453936583591583 0 0 0
74 3 23.381500895521462 17.09918050273138 1.5453881944857628 0 0 0
75 3 26.49905346499865 17.099179651920654 1.5453937439700127 0 0 0
76 3 29.616608956011728 17.099181504906994 1.545415337501212 0 0 0
77 3 32.73415185927675 17.09917943310811 1.5454475746736538 0 0 0
78 3 3.11739574334122 19.79902334346746 1.5457912399987273 0 0 0
79 3 6.234943926728333 19.799050823877934 1.545645358640076 0 0 0
80 3 9.352498129266062 19.799051769032758 1.5455506041561071 0 0 0
81 3 12.47005802860303 19.799051159350956 1.5454803957689818 0 0 0
82 3 15.587614059856156 19.79905127210322 1.5454311030189745 0 0 0
83 3 18.70517058811933 19.799050781358012 1.5454010392298356 0 0 0
84 3 21.82272405023782 19.79905147992775 1.5453895091365606 0 0 0
85 3 24.940277036082335 19.799050077835147 1.5453897545494117 0 0 0
86 3 28.05783193271608 19.799051248375843 1.545401807629639 0 0 0
87 3 31.17538276996025 19.79905108872066 1.5454322519808834 0 0 0
88 3 34.292920077545624 19.79904970216769 1.5454575229163363 0 0 0
89 3 1.5586956211217524 22.498893670425495 1.5456896569442777 0 0 0
90 3 4.676144962658571 22.498923574616395 1.5457211052411164 0 0 0
91 3 7.793713483175565 22.498921199252045 1.54559686502093 0 0 0
92 3 10.91127722682974 22.498922205265647 1.5455127018441326 0 0 0
93 3 14.028835159205176 22.498921934752392 1.5454542119194503 0 0 0
94 3 17.146392360531827 22.498921916917386 1.545412984238896 0 0 0
95 3 20.26394734440414 22.498921350774076 1.5453936583589833 0 0 0
96 3 23.381500895521395 22.498921294771012 1.545388194485686 0 0 0
97 3 26.499053464998564 22.49892044396031 1.5453937439700707 0 0 0
98 3 29.61660895601175 22.498922296946418 1.5454153375012132 0 0 0
99 3 32.73415185927675 22.498920225147653 1.5454475746736995 0 0 0
100 3 3.1173957433418296 25.198764135506444 1.5457912399986928 0 0 0
101 3 6.23494392672833 25.19879161591757 1.5456453586398768 0 0 0
102 3 9.352498129266227 25.198792561072242 1.545550604156261 0 0 0
103 3 12.47005802860284 25.19879195139037 1.5454803957688965 0 0 0
104 3 15.587614059856286 25.1987920641427 1.5454311030188996 0 0 0
105 3 18.705170588119373 25.19879157339751 1.5454010392298945 0 0 0
106 3 21.822724050237593 25.19879227196729 1.545389509136526 0 0 0
107 3 24.940277036082303 25.19879086987463 1.5453897545493518 0 0 0
108 3 28.05783193271615 25.19879204041532 1.5454018076296814 0 0 0
109 3 31.17538276996011 25.198791880760215 1.545432251980817 0 0 0
110 3 34.29292007754582 25.19879049420735 1.5454575229164393 0 0 0
111 3 1.5586956211202578 27.89863446246404 1.5456896569461784 0 0 0
112 3 4.67614496265849 27.89866436665645 1.545721105240818 0 0 0
113 3 7.793713483175181 27.8986619912917 1.5455968650209055 0 0 0
114 3 10.911277226829531 27.898662997304964 1.5455127018440475 0 0 0
115 3 14.028835159205245 27.89866272679187 1.5454542119193544 0 0 0
116 3 17.146392360531955 27.898662708956795 1.5454129842388649 0 0 0
117 3 20.26394734440402 27.898662142813702 1.5453936583591705 0 0 0
118 3 23.381500895521455 27.898662086810567 1.5453881944857053 0 0 0
119 3 26.499053464998624 27.898661235999704 1.545393743969991 0 0 0
120 3 29.616608956011767 27.898663088986073 1.545415337501295 0 0 0
121 3 32.73415185927667 27.898661017187095 1.5454475746736622 0 0 0
122 3 3.1173957433424926 30.598504927546323 1.5457912399976594 0 0 0
123 3 6.234943926728379 30.598532407956416 1.545645358640207 0 0 0
124 3 9.352498129266221 30.598533353111446 1.545550604156298 0 0 0
125 3 12.47005802860298 30.598532743430024 1.5454803957689793 0 0 0
126 3 15.587614059856156 30.59853285618229 1.5454311030188832 0 0 0
127 3 18.705170588119532 30.598532365436853 1.545401039229934 0 0 0
128 3 21.82272405023773 30.598533064006848 1.5453895091365362 0 0 0
129 3 24.940277036082346 30.59853166191422 1.5453897545493764 0 0 0
130 3 28.05783193271593 30.598532832454943 1.5454018076296114 0 0 0
131 3 31.175382769960347 30.59853267279997 1.545432251980824 0 0 0
132 3 34.292920077545865 30.598531286246683 1.5454575229162817 0 0 0
133 3 1.5586956211208023 33.2983752545036 1.5456896569451828 0 0 0
134 3 4.67614496265831 33.29840515869629 1.545721105240926 0 0 0
135 3 7.793713483174932 33.298402783331134 1.5455968650209477 0 0 0
136 3 10.911277226829869 33.29840378934456 1.5455127018441306 0 0 0
137 3 14.028835159205494 33.298403518831414 1.5454542119193548 0 0 0
138 3 17.146392360531785 33.2984035009964 1.545412984238929 0 0 0
139 3 20.263947344404286 33.298402934853314 1.5453936583591443 0 0 0
140 3 23.381500895521334 33.29840287885001 1.5453881944857155 0 0 0
141 3 26.499053464998674 33.298402028039376 1.5453937439701282 0 0 0
142 3 29.61660895601175 33.2984038810255 1.5454153375013482 0 0 0
143 3 32.734151859276686 33.29840180922665 1.545447574673656 0 0 0
144 3 3.117395743341427 35.99824571958596 1.5457912399981504 0 0 0
145 3 6.234943926728372 35.998273199996646 1.5456453586398904 0 0 0
146 3 9.352498129266127 35.99827414515134 1.5455506041562983 0 0 0
147 3 12.47005802860304 35.99827353546938 1.5454803957689378 0 0 0
148 3 15.587614059856156 35.99827364822202 1.5454311030188943 0 0 0
149 3 18.705170588119557 35.99827315747673 1.545401039229914 0 0 0
150 3 21.82272405023779 35.99827385604644 1.54538950913638 0 0 0
151 3 24.940277036082165 35.998272453953746 1.545389754549339 0 0 0
152 3 28.05783193271598 35.998273624494786 1.5454018076296534 0 0 0
153 3 31.17538276996027 35.99827346483937 1.5454322519808235 0 0 0
154 3 34.29292007754589 35.99827207828632 1.545457522916301 0 0 0
155 3 1.5586956211201437 38.69811604654349 1.5456896569458236 0 0 0
156 3 4.676144962658773 38.69814595073487 1.5457211052408097 0 0 0
157 3 7.7937134831754245 38.69814357537062 1.5455968650209906 0 0 0
158 3 10.911277226829782 38.69814458138427 1.545512701844116 0 0 0
159 3 14.028835159205157 38.6981443108711 1.5454542119192882 0 0 0
160 3 17.146392360531976 38.698144293036 1.5454129842387825 0 0 0
161 3 20.26394734440405 38.69814372689286 1.54539365835926 0 0 0
162 3 23.381500895521327 38.69814367088958 1.5453881944857752 0 0 0
163 3 26.49905346499859 38.698142820078864 1.5453937439699326 0 0 0
164 3 29.61660895601169 38.69814467306508 1.5454153375014135 0 0 0
165 3 32.734151859276835 38.69814260126614 1.545447574673685 0 0 0
166 3 3.1173957433423767 41.39798651162515 1.5457912399981206 0 0 0
167 3 6.234943926728196 41.39801399203585 1.5456453586402579 0 0 0
168 3 9.352498129266102 41.39801493719092 1.5455506041562042 0 0 0
169 3 12.470058028602766 41.39801432750906 1.5454803957686416 0 0 0
170 3 15.587614059856117 41.39801444026124 1.545431103018833 0 0 0
171 3 18.70517058811935 41.39801394951646 1.5454010392298998 0 0 0
172 3 21.822724050237568 41.398014648086004 1.5453895091365926 0 0 0
173 3 24.940277036082424 41.39801324599332 1.545389754549418 0 0 0
174 3 28.05783193271608 41.39801441653416 1.5454018076296705 0 0 0
175 3 31.175382769960198 41.39801425687887 1.5454322519809025 0 0 0
176 3 34.29292007754575 41.398012870325815 1.5454575229162593 0 0 0
178 2 4.676286064223219 0.8999551310257213 4.663514404541395 0 0 0
179 1 3.1173832226059166 1.799864048657891 3.104695235938213 0 0 0
180 2 7.793812662213721 0.8999584233845758 4.663408185231078 0 0 0
181 1 6.2349892345879105 1.7999164897570732 3.1045532113945704 0 0 0
182 1 9.352538332011672 1.7999136544682919 3.104455619510185 0 0 0
183 2 10.911347100082176 0.8999562682981544 4.663325361275304 0 0 0
184 1 12.47008590755866 1.7999138393516043 3.104386652211605 0 0 0
185 2 14.02888499570424 0.8999574919726603 4.663265598503402 0 0 0
186 1 15.587634438824487 1.7999138038789866 3.1043378942383364 0 0 0
187 2 17.146421545354105 0.8999568792410393 4.6632277426778375 0 0 0
188 2 20.263960190534483 0.899956891366105 4.663205870343563 0 0 0
189 1 18.705179806594135 1.7999138292935812 3.1043072723628566 0 0 0
190 2 23.38149960952703 0.8999577298532383 4.663200490673414 0 0 0
191 1 21.822726820515136 1.7999136721803684 3.1042952670549235 0 0 0
192 2 26.499042608968676 0.8999560900218799 4.663206369744711 0 0 0
193 1 24.940274450850872 1.7999130870149553 3.1042960491096863 0 0 0
194 1 28.057821001153187 1.7999134012370983 3.1043076622252284 0 0 0
195 2 29.61657913613333 0.8999574268249244 4.6632283390463805 0 0 0
196 1 31.17536669944708 1.7999148275748418 3.1043382157156385 0 0 0
197 2 32.73412739067726 0.8999595493127561 4.66326020779688 0 0 0
198 1 34.29291349530683 1.7999138670199757 3.104364750695583 0 0 0
199 1 1.5586646095795758 4.499820431762553 3.104718790913477 0 0 0
200 1 4.676230705131188 4.499776491252047 3.1046099532212943 0 0 0
201 2 3.117517691993038 3.5998260790537695 4.663551966049939 0 0 0
202 1 7.793767777688091 4.49978415885386 3.104502716410363 0 0 0
203 2 6.235051964563096 3.599825040372581 4.6634628903048565 0 0 0
204 2 9.352583342630064 3.5998268910539015 4.663363672064298 0 0 0
205 1 10.91131394374593 4.499783932742295 3.1044182322256986 0 0 0
206 2 12.47011718108699 3.5998277684554036 4.663292784367752 0 0 0
207 1 14.028860928065555 4.499784046430949 3.1043584909062583 0 0 0
208 2 15.58765401723548 3.599827543522829 4.663244014046259 0 0 0
209 1 17.146407538487228 4.499784636988918 3.104320436208085 0 0 0
210 1 20.263952742642243 4.499784021225361 3.1042990474380536 0 0 0
211 2 18.70519033891566 3.5998276461365997 4.663215045737734 0 0 0
212 1 23.381500650925275 4.499784034522033 3.1042946928505866 0 0 0
213 2 21.82272867725053 3.599827640814751 4.663200973792227 0 0 0
214 1 26.499048208278726 4.499783102024089 3.1042998941280047 0 0 0
215 2 24.940271669329377 3.5998277050645053 4.663202330902999 0 0 0
216 2 28.057811415758056 3.5998261957949644 4.663214679969019 0 0 0
217 1 29.616594082221283 4.499784876424529 3.1043210098839293 0 0 0
218 2 31.17535120491684 3.5998295216842964 4.6632451134083235 0 0 0
219 1 32.734140140003646 4.499784722886031 3.104354343223601 0 0 0
220 2 34.29290685312788 3.599829450534472 4.663270106387006 0 0 0
222 2 4.676286064222701 6.299695923065195 4.663514404540788 0 0 0
223 1 3.117383222605476 7.199604840698219 3.104695235938538 0 0 0
224 2 7.793812662214118 6.299699215423782 4.6634081852311615 0 0 0
225 1 6.234989234587673 7.1996572817964735 3.1045532113943595 0 0 0
226 1 9.352538332011541 7.199654446507646 3.1044556195101403 0 0 0
227 2 10.911347100081658 6.299697060337759 4.663325361274944 0 0 0
228 1 12.470085907558422 7.19965463139106 3.1043866522114145 0 0 0
229 2 14.028884995704384 6.299698284012051 4.663265598503335 0 0 0
230 1 15.587634438824796 7.199654595918657 3.1043378942385 0 0 0
231 2 17.146421545354396 6.299697671280822 4.6632277426780036 0 0 0
232 2 20.263960190534572 6.299697683405696 4.6632058703435595 0 0 0
233 1 18.705179806594074 7.199654621332986 3.1043072723628504 0 0 0
234 2 23.38149960952716 6.299698521892822 4.663200490673535 0 0 0
235 1 21.822726820515218 7.199654464219861 3.1042952670549484 0 0 0
236 2 26.499042608968793 6.299696882061512 4.663206369744871 0 0 0
237 1 24.94027445085104 7.199653879054629 3.104296049109634 0 0 0
238 1 28.057821001153208 7.19965419327665 3.1043076622252346 0 0 0
239 2 29.616579136133193 6.2996982188645685 4.663228339046502 0 0 0
240 1 31.17536669944708 7.1996556196146075 3.1043382157155706 0 0 0
241 2 32.73412739067718 6.299700341352264 4.663260207796805 0 0 0
242 1 34.292913495306735 7.19965465905932 3.1043647506956153 0 0 0
243 1 1.5586646095799388 9.899561223801175 3.1047187909124445 0 0 0
244 1 4.676230705131508 9.899517283291702 3.10460995322116 0 0 0
245 2 3.1175176919924983 8.999566871093526 4.663551966049615 0 0 0
246 1 7.793767777688516 9.899524950893309 3.104502716410642 0 0 0
247 2 6.23505196456325 8.99956583241237 4.66346289030496 0 0 0
248 2 9.35258334263054 8.99956768309314 4.663363672064242 0 0 0
249 1 10.91131394374643 9.89952472478185 3.104418232225695 0 0 0
250 2 12.470117181087415 8.999568560494897 4.6632927843677985 0 0 0
251 1 14.028860928065727 9.899524838470521 3.1043584909063164 0 0 0
252 2 15.58765401723559 8.999568335562344 4.663244014046301 0 0 0
253 1 17.146407538487203 9.899525429028436 3.1043204362080297 0 0 0
254 1 20.263952742642342 9.899524813264852 3.104299047438031 0 0 0
255 2 18.705190338915692 8.999568438176127 4.6632150457377515 0 0 0
256 1 23.381500650925318 9.899524826561706 3.1042946928506403 0 0 0
257 2 21.822728677250485 8.999568432854227 4.663200973792201 0 0 0
258 1 26.49904820827864 9.899523894063615 3.104299894128067 0 0 0
259 2 24.940271669329476 8.999568497104041 4.663202330902991 0 0 0
260 2 28.057811415758028 8.999566987834264 4.663214679969074 0 0 0
261 1 29.616594082221386 9.899525668464237 3.1043210098838876 0 0 0
262 2 31.1753512049167 8.999570313723726 4.663245113408345 0 0 0
263 1 32.73414014000368 9.899525514925486 3.1043543432236445 0 0 0
264 2 34.292906853127775 8.999570242573984 4.663270106387056 0 0 0
266 2 4.676286064222778 11.69943671510439 4.663514404540496 0 0 0
267 1 3.117383222605757 12.599345632737466 3.1046952359393623 0 0 0
268 2 7.793812662213999 11.699440007463448 4.663408185231099 0 0 0
269 1 6.23498923458762 12.599398073836255 3.1045532113938914 0 0 0
270 1 9.352538332011447 12.599395238547322 3.104455619510614 0 0 0
271 2 10.911347100081814 11.699437852377383 4.663325361275131 0 0 0
272 1 12.47008590755865 12.599395423430872 3.104386652211443 0 0 0
273 2 14.028884995704592 11.699439076051828 4.663265598503336 0 0 0
274 1 15.587634438824846 12.599395387958307 3.1043378942384363 0 0 0
275 2 17.146421545354436 11.699438463320403 4.663227742677864 0 0 0
276 2 20.263960190534565 11.699438475445321 4.663205870343636 0 0 0
277 1 18.705179806594067 12.599395413372482 3.1043072723628016 0 0 0
278 2 23.38149960952715 11.699439313932436 4.663200490673561 0 0 0
279 1 21.822726820515175 12.599395256259523 3.1042952670549333 0 0 0
280 2 26.49904260896876 11.699437674101032 4.663206369744927 0 0 0
281 1 24.940274450850886 12.59939467109431 3.104296049109734 0 0 0
282 1 28.05782100115301 12.599394985316064 3.1043076622251786 0 0 0
283 2 29.616579136133232 11.69943901090413 4.663228339046402 0 0 0
284 1 31.175366699447096 12.599396411653984 3.104338215715539 0 0 0
285 2 32.73412739067714 11.69944113339178 4.663260207796863 0 0 0
286 1 34.29291349530669 12.599395451099026 3.1043647506956407 0 0 0
287 1 1.5586646095795653 15.29930201584086 3.1047187909119565 0 0 0
288 1 4.676230705131607 15.299258075331432 3.104609953221252 0 0 0
289 2 3.1175176919931937 14.399307663133367 4.663551966048974 0 0 0
290 1 7.793767777688297 15.299265742932933 3.1045027164104786 0 0 0
291 2 6.235051964563684 14.399306624452048 4.6634628903051984 0 0 0
292 2 9.352583342630172 14.39930847513306 4.663363672064279 0 0 0
293 1 10.91131394374595 15.29926551682143 3.104418232225723 0 0 0
294 2 12.470117181087153 14.399309352534711 4.663292784367896 0 0 0
295 1 14.028860928065583 15.299265630510142 3.1043584909062263 0 0 0
296 2 15.587654017235367 14.399309127601903 4.6632440140461675 0 0 0
297 1 17.146407538487225 15.29926622106798 3.104320436208054 0 0 0
298 1 20.263952742642342 15.299265605304331 3.1042990474380376 0 0 0
299 2 18.705190338915752 14.399309230215657 4.663215045737746 0 0 0
300 1 23.38150065092538 15.29926561860123 3.1042946928506887 0 0 0
301 2 21.822728677250634 14.399309224893756 4.663200973792196 0 0 0
302 1 26.499048208278815 15.299264686103035 3.104299894128001 0 0 0
303 2 24.940271669329523 14.399309289143533 4.663202330902992 0 0 0
304 2 28.057811415757918 14.39930777987383 4.663214679969074 0 0 0
305 1 29.616594082221486 15.299266460503697 3.104321009883937 0 0 0
306 2 31.17535120491668 14.399311105763335 4.663245113408298 0 0 0
307 1 32.73414014000367 15.299266306964988 3.1043543432236453 0 0 0
308 2 34.292906853127704 14.399311034613392 4.6632701063870625 0 0 0
310 2 4.676286064221978 17.099177507144226 4.663514404540686 0 0 0
311 1 3.11738322260619 17.999086424777055 3.1046952359389905 0 0 0
312 2 7.793812662213641 17.09918079950305 4.6634081852308915 0 0 0
313 1 6.234989234587317 17.99913886587543 3.1045532113940313 0 0 0
314 1 9.352538332011463 17.999136030586993 3.104455619510327 0 0 0
315 2 10.911347100081775 17.099178644416988 4.663325361275089 0 0 0
316 1 12.470085907558534 17.999136215470443 3.104386652211486 0 0 0
317 2 14.028884995704344 17.099179868091216 4.663265598503405 0 0 0
318 1 15.58763443882487 17.999136179997844 3.104337894238524 0 0 0
319 2 17.146421545354475 17.09917925535986 4.663227742677873 0 0 0
320 2 20.26396019053472 17.099179267484867 4.663205870343584 0 0 0
321 1 18.70517980659403 17.99913620541217 3.1043072723628167 0 0 0
322 2 23.38149960952703 17.09918010597186 4.663200490673546 0 0 0
323 1 21.822726820515165 17.99913604829914 3.104295267054845 0 0 0
324 2 26.49904260896897 17.099178466140643 4.663206369744984 0 0 0
325 1 24.94027445085097 17.999135463133676 3.1042960491097924 0 0 0
326 1 28.05782100115301 17.999135777355846 3.1043076622252133 0 0 0
327 2 29.61657913613341 17.09917980294365 4.663228339046502 0 0 0
328 1 31.17536669944692 17.99913720369383 3.1043382157155044 0 0 0
329 2 32.73412739067713 17.099181925431367 4.663260207796884 0 0 0
330 1 34.29291349530659 17.99913624313854 3.1043647506957215 0 0 0
331 1 1.5586646095810468 20.699042807879533 3.104718790914302 0 0 0
332 1 4.676230705132224 20.69899886737073 3.1046099532210594 0 0 0
333 2 3.1175176919934517 19.79904845517263 4.6635519660487645 0 0 0
334 1 7.793767777688518 20.69900653497262 3.104502716410494 0 0 0
335 2 6.235051964564018 19.799047416491046 4.663462890305108 0 0 0
336 2 9.352583342630052 19.799049267172595 4.663363672064092 0 0 0
337 1 10.911313943745935 20.699006308861026 3.1044182322255334 0 0 0
338 2 12.470117181086895 19.79905014457425 4.663292784367922 0 0 0
339 1 14.028860928065592 20.699006422549775 3.1043584909065225 0 0 0
340 2 15.587654017235595 19.799049919641412 4.663244014046286 0 0 0
341 1 17.146407538487352 20.699007013107618 3.104320436208028 0 0 0
342 1 20.263952742642427 20.69900639734398 3.104299047437931 0 0 0
343 2 18.705190338915845 19.799050022255326 4.66321504573769 0 0 0
344 1 23.3815006509251 20.69900641064056 3.1042946928505994 0 0 0
345 2 21.822728677250566 19.79905001693341 4.66320097379213 0 0 0
346 1 26.499048208278886 20.699005478142606 3.1042998941280695 0 0 0
347 2 24.940271669329476 19.79905008118298 4.663202330903033 0 0 0
348 2 28.057811415758017 19.799048571913378 4.663214679969025 0 0 0
349 1 29.616594082221617 20.699007252543264 3.1043210098839253 0 0 0
350 2 31.17535120491678 19.799051897802865 4.663245113408268 0 0 0
351 1 32.734140140003454 20.699007099004678 3.104354343223597 0 0 0
352 2 34.29290685312778 19.79905182665305 4.663270106387097 0 0 0
354 2 4.676286064222658 22.49891829918478 4.6635144045409165 0 0 0
355 1 3.117383222607119 23.398827216816574 3.1046952359386086 0 0 0
356 2 7.793812662213994 22.498921591542086 4.663408185230992 0 0 0
357 1 6.2349892345879 23.398879657915188 3.104553211394194 0 0 0
358 1 9.352538332011633 23.398876822626775 3.1044556195101993 0 0 0
359 2 10.911347100081567 22.498919436456752 4.6633253612749845 0 0 0
360 1 12.470085907558257 23.398877007509952 3.1043866522116694 0 0 0
361 2 14.02888499570446 22.498920660130842 4.663265598503499 0 0 0
362 1 15.58763443882462 23.398876972037293 3.104337894238483 0 0 0
363 2 17.146421545354418 22.498920047399547 4.663227742677846 0 0 0
364 2 20.263960190534466 22.498920059524295 4.663205870343526 0 0 0
365 1 18.705179806593748 23.398876997451683 3.1043072723627514 0 0 0
366 2 23.381499609527005 22.49892089801143 4.66320049067361 0 0 0
367 1 21.822726820515307 23.398876840338726 3.1042952670549373 0 0 0
368 2 26.499042608968793 22.498919258180308 4.663206369744947 0 0 0
369 1 24.94027445085103 23.398876255173132 3.1042960491097182 0 0 0
370 1 28.057821001153208 23.398876569395313 3.104307662225232 0 0 0
371 2 29.616579136133254 22.498920594983122 4.66322833904649 0 0 0
372 1 31.175366699447178 23.398877995733255 3.104338215715541 0 0 0
373 2 32.73412739067706 22.49892271747073 4.663260207796708 0 0 0
374 1 34.29291349530655 23.398877035178096 3.1043647506956478 0 0 0
375 1 1.5586646095811878 26.0987835999204 3.104718790913008 0 0 0
376 1 4.676230705131536 26.098739659409787 3.104609953221076 0 0 0
377 2 3.1175176919915324 25.198789247212613 4.6635519660498925 0 0 0
378 1 7.793767777688178 26.098747327012134 3.104502716410421 0 0 0
379 2 6.2350519645629205 25.198788208530488 4.663462890304633 0 0 0
380 2 9.35258334263013 25.198790059212367 4.663363672064052 0 0 0
381 1 10.911313943746013 26.098747100900635 3.1044182322255676 0 0 0
382 2 12.470117181087172 25.198790936613875 4.663292784368016 0 0 0
383 1 14.028860928065567 26.098747214589125 3.1043584909064457 0 0 0
384 2 15.587654017235755 25.198790711681067 4.663244014046295 0 0 0
385 1 17.14640753848741 26.098747805147266 3.104320436208032 0 0 0
386 1 20.263952742642303 26.098747189383566 3.104299047437955 0 0 0
387 2 18.705190338915813 25.19879081429485 4.663215045737733 0 0 0
388 1 23.38150065092508 26.098747202680347 3.1042946928505915 0 0 0
389 2 21.822728677250407 25.198790808972795 4.663200973792123 0 0 0
390 1 26.499048208278758 26.09874627018231 3.1042998941280584 0 0 0
391 2 24.940271669329455 25.19879087322259 4.663202330903006 0 0 0
392 2 28.057811415758106 25.198789363953 4.663214679969039 0 0 0
393 1 29.616594082221425 26.098748044582564 3.1043210098839373 0 0 0
394 2 31.17535120491686 25.19879268984231 4.663245113408418 0 0 0
395 1 32.73414014000377 26.098747891044223 3.104354343223601 0 0 0
396 2 34.29290685312793 25.198792618692604 4.663270106386968 0 0 0
398 2 4.676286064222378 27.89865909122316 4.663514404540218 0 0 0
399 1 3.1173832226070903 28.79856800885675 3.1046952359396354 0 0 0
400 2 7.793812662214104 27.898662383581343 4.6634081852312015 0 0 0
401 1 6.2349892345881415 28.798620449954722 3.104553211394138 0 0 0
402 1 9.352538332011033 28.798617614665883 3.1044556195103015 0 0 0
403 2 10.911347100081258 27.898660228496233 4.6633253612750005 0 0 0
404 1 12.470085907558312 28.79861779954965 3.1043866522115984 0 0 0
405 2 14.028884995704509 27.89866145217041 4.663265598503398 0 0 0
406 1 15.587634438825047 28.798617764077097 3.1043378942384297 0 0 0
407 2 17.146421545354286 27.8986608394391 4.663227742677936 0 0 0
408 2 20.263960190534558 27.898660851563957 4.66320587034356 0 0 0
409 1 18.70517980659387 28.798617789491125 3.1043072723628624 0 0 0
410 2 23.38149960952705 27.898661690051032 4.663200490673502 0 0 0
411 1 21.822726820514937 28.79861763237823 3.104295267054943 0 0 0
412 2 26.49904260896865 27.898660050219764 4.6632063697449375 0 0 0
413 1 24.94027445085106 28.798617047212883 3.104296049109642 0 0 0
414 1 28.057821001153286 28.79861736143483 3.10430766222519 0 0 0
415 2 29.616579136133254 27.89866138702268 4.66322833904638 0 0 0
416 1 31.175366699447018 28.798618787772586 3.1043382157156008 0 0 0
417 2 32.73412739067712 27.898663509510303 4.663260207796824 0 0 0
418 1 34.292913495306756 28.79861782721759 3.104364750695671 0 0 0
419 1 1.5586646095798475 31.49852439195941 3.1047187909122407 0 0 0
420 1 4.6762307051317045 31.49848045144947 3.104609953220842 0 0 0
421 2 3.117517691992001 30.598530039252502 4.663551966049335 0 0 0
422 1 7.793767777688486 31.498488119051803 3.104502716410769 0 0 0
423 2 6.235051964563481 30.598529000569922 4.663462890305312 0 0 0
424 2 9.352583342630346 30.598530851251542 4.6633636720641105 0 0 0
425 1 10.911313943745963 31.498487892940005 3.1044182322254392 0 0 0
426 2 12.470117181087241 30.598531728653622 4.663292784367913 0 0 0
427 1 14.02886092806553 31.49848800662871 3.1043584909064896 0 0 0
428 2 15.587654017235486 30.598531503720594 4.663244014046212 0 0 0
429 1 17.146407538487335 31.498488597186647 3.104320436207999 0 0 0
430 1 20.26395274264254 31.498487981422933 3.1042990474379715 0 0 0
431 2 18.7051903389159 30.598531606334237 4.663215045737732 0 0 0
432 1 23.3815006509252 31.49848799471992 3.104294692850521 0 0 0
433 2 21.82272867725067 30.59853160101243 4.663200973792152 0 0 0
434 1 26.499048208278488 31.498487062221745 3.1042998941281614 0 0 0
435 2 24.940271669329377 30.5985316652623 4.663202330902991 0 0 0
436 2 28.057811415757897 30.59853015599252 4.66321467996915 0 0 0
437 1 29.616594082221614 31.498488836622577 3.104321009883934 0 0 0
438 2 31.1753512049168 30.598533481881926 4.6632451134084 0 0 0
439 1 32.73414014000363 31.498488683083803 3.104354343223539 0 0 0
440 2 34.29290685312764 30.598533410732035 4.66327010638712 0 0 0
442 2 4.676286064223373 33.29839988326299 4.663514404540437 0 0 0
443 1 3.1173832226068607 34.19830880089626 3.104695235939663 0 0 0
444 2 7.793812662213812 33.2984031756214 4.663408185230991 0 0 0
445 1 6.234989234587783 34.19836124199465 3.1045532113939607 0 0 0
446 1 9.35253833201128 34.19835840670547 3.1044556195102633 0 0 0
447 2 10.911347100081615 33.29840102053559 4.663325361275036 0 0 0
448 1 12.470085907558472 34.19835859158892 3.1043866522116534 0 0 0
449 2 14.028884995704367 33.29840224421016 4.663265598503591 0 0 0