LAMMPS data file via write_data, version 21 Nov 2023, timestep = 41, units = metal

38400 atoms
3 atom types

0 1247.0170394009647 xlo xhi
0 86.39587480583242 ylo yhi
0 50 zlo zhi
0 0 0 xy xz yz

Masses

1 95.94
2 32.065
3 32.065

Atoms # atomic

5 3 1.5587704715285553 0.8999570568181005 1.545440124591805 0 0 0
11 3 4.676313070030828 0.8999570568180957 1.545440124591822 0 0 0
17 3 7.793855668533195 0.899957056818093 1.5454401245918241 0 0 0
23 3 10.911398267035596 0.8999570568180935 1.5454401245918268 0 0 0
29 3 14.02894086553801 0.8999570568180939 1.5454401245918257 0 0 0
35 3 17.146483464040422 0.8999570568180949 1.545440124591825 0 0 0
41 3 20.264026062542822 0.8999570568180949 1.5454401245918226 0 0 0
47 3 23.381568661045232 0.899957056818096 1.5454401245918237 0 0 0
53 3 26.499111259547647 0.899957056818096 1.5454401245918232 0 0 0
59 3 29.61665385805007 0.8999570568180966 1.545440124591825 0 0 0
65 3 32.734196456552475 0.8999570568180957 1.5454401245918254 0 0 0
71 3 35.851739055054885 0.8999570568180957 1.5454401245918266 0 0 0
77 3 38.969281653557296 0.8999570568180935 1.5454401245918254 0 0 0
12 3 3.1175417707797255 3.5998281445003677 1.545440124591812 0 0 0
18 3 6.2350843692820295 3.5998281445003575 1.5454401245918201 0 0 0
24 3 9.352626967784415 3.5998281445003593 1.545440124591825 0 0 0
30 3 12.47016956628682 3.5998281445003593 1.5454401245918272 0 0 0
36 3 15.587712164789226 3.5998281445003597 1.545440124591826 0 0 0
42 3 18.705254763291638 3.5998281445003597 1.545440124591825 0 0 0
48 3 21.82279736179405 3.5998281445003597 1.5454401245918241 0 0 0
54 3 24.94033996029647 3.5998281445003597 1.5454401245918266 0 0 0
60 3 28.05788255879889 3.599828144500361 1.5454401245918243 0 0 0
66 3 31.17542515730129 3.599828144500361 1.5454401245918274 0 0 0
72 3 34.2929677558037 3.5998281445003597 1.5454401245918266 0 0 0
78 3 37.41051035430612 3.599828144500356 1.5454401245918274 0 0 0
2405 3 1.558770471528554 6.299699232182629 1.545440124591808 0 0 0
2411 3 4.676313070030825 6.299699232182629 1.5454401245918221 0 0 0
2417 3 7.7938556685331974 6.2996992321826255 1.5454401245918228 0 0 0
2423 3 10.9113982670356 6.299699232182622 1.545440124591826 0 0 0
2429 3 14.02894086553801 6.2996992321826255 1.545440124591826 0 0 0
2435 3 17.146483464040422 6.2996992321826255 1.5454401245918266 0 0 0
2441 3 20.264026062542822 6.2996992321826255 1.5454401245918237 0 0 0
2447 3 23.381568661045232 6.2996992321826255 1.545440124591826 0 0 0
2453 3 26.499111259547647 6.2996992321826255 1.545440124591825 0 0 0
2459 3 29.61665385805007 6.2996992321826255 1.545440124591826 0 0 0
2465 3 32.734196456552475 6.2996992321826255 1.545440124591825 0 0 0
2471 3 35.851739055054885 6.299699232182622 1.5454401245918268 0 0 0
2477 3 38.969281653557296 6.299699232182622 1.5454401245918252 0 0 0
2412 3 3.117541770779724 8.999570319864894 1.5454401245918141 0 0 0
2418 3 6.2350843692820295 8.999570319864885 1.545440124591821 0 0 0
2424 3 9.352626967784412 8.999570319864885 1.545440124591825 0 0 0
2430 3 12.47016956628682 8.999570319864889 1.545440124591825 0 0 0
2436 3 15.587712164789226 8.999570319864885 1.5454401245918254 0 0 0
2442 3 18.705254763291638 8.999570319864889 1.5454401245918252 0 0 0
2448 3 21.82279736179405 8.999570319864885 1.545440124591825 0 0 0
2454 3 24.94033996029647 8.999570319864889 1.545440124591825 0 0 0
2460 3 28.05788255879889 8.999570319864889 1.545440124591825 0 0 0
2466 3 31.17542515730129 8.99957031986489 1.5454401245918252 0 0 0
2472 3 34.2929677558037 8.999570319864889 1.5454401245918241 0 0 0
2478 3 37.41051035430611 8.999570319864885 1.5454401245918252 0 0 0
4805 3 1.5587704715285546 11.69944140754716 1.545440124591809 0 0 0
4811 3 4.676313070030822 11.699441407547154 1.5454401245918237 0 0 0
4817 3 7.7938556685331974 11.699441407547148 1.5454401245918241 0 0 0
4823 3 10.9113982670356 11.699441407547148 1.545440124591826 0 0 0
4829 3 14.02894086553801 11.699441407547148 1.5454401245918272 0 0 0
4835 3 17.146483464040422 11.699441407547148 1.5454401245918266 0 0 0
4841 3 20.264026062542822 11.699441407547148 1.5454401245918254 0 0 0
4847 3 23.381568661045232 11.699441407547148 1.5454401245918266 0 0 0
4853 3 26.499111259547647 11.699441407547148 1.545440124591825 0 0 0
4859 3 29.61665385805007 11.699441407547154 1.545440124591826 0 0 0
4865 3 32.734196456552475 11.699441407547148 1.5454401245918254 0 0 0
4871 3 35.851739055054885 11.699441407547148 1.5454401245918254 0 0 0
4877 3 38.969281653557296 11.699441407547148 1.5454401245918254 0 0 0
4812 3 3.1175417707797255 14.399312495229418 1.545440124591814 0 0 0
4818 3 6.2350843692820295 14.399312495229418 1.545440124591821 0 0 0
4824 3 9.352626967784415 14.399312495229418 1.5454401245918243 0 0 0
4830 3 12.470169566286817 14.399312495229418 1.5454401245918252 0 0 0
4836 3 15.587712164789226 14.399312495229418 1.545440124591825 0 0 0
4842 3 18.70525476329163 14.399312495229418 1.5454401245918266 0 0 0
4848 3 21.82279736179405 14.399312495229411 1.545440124591823 0 0 0
4854 3 24.940339960296477 14.399312495229418 1.5454401245918243 0 0 0
4860 3 28.057882558798877 14.399312495229418 1.545440124591823 0 0 0
4866 3 31.17542515730129 14.399312495229418 1.545440124591825 0 0 0
4872 3 34.2929677558037 14.399312495229418 1.5454401245918237 0 0 0
4878 3 37.41051035430612 14.399312495229411 1.545440124591824 0 0 0
7205 3 1.5587704715285533 17.099183582911685 1.5454401245918064 0 0 0
7211 3 4.676313070030824 17.099183582911685 1.5454401245918201 0 0 0
7217 3 7.7938556685331974 17.099183582911678 1.5454401245918228 0 0 0
7223 3 10.9113982670356 17.099183582911678 1.545440124591825 0 0 0
7229 3 14.02894086553801 17.099183582911678 1.5454401245918266 0 0 0
7235 3 17.146483464040422 17.099183582911685 1.5454401245918266 0 0 0
7241 3 20.264026062542822 17.099183582911678 1.545440124591825 0 0 0
7247 3 23.381568661045232 17.099183582911678 1.5454401245918252 0 0 0
7253 3 26.499111259547647 17.099183582911685 1.5454401245918266 0 0 0
7259 3 29.61665385805007 17.099183582911685 1.5454401245918241 0 0 0
7265 3 32.734196456552475 17.099183582911685 1.5454401245918241 0 0 0
7271 3 35.851739055054885 17.099183582911678 1.545440124591825 0 0 0
7277 3 38.969281653557296 17.099183582911678 1.545440124591825 0 0 0
7212 3 3.117541770779734 19.799054670593943 1.545440124591806 0 0 0
7218 3 6.235084369282031 19.799054670593936 1.5454401245918197 0 0 0
7224 3 9.352626967784412 19.799054670593936 1.545440124591826 0 0 0
7230 3 12.470169566286817 19.799054670593936 1.5454401245918266 0 0 0
7236 3 15.587712164789226 19.799054670593936 1.5454401245918266 0 0 0
7242 3 18.705254763291638 19.799054670593936 1.5454401245918272 0 0 0
7248 3 21.82279736179405 19.799054670593936 1.545440124591826 0 0 0
7254 3 24.940339960296477 19.799054670593936 1.545440124591826 0 0 0
7260 3 28.05788255879889 19.799054670593936 1.5454401245918268 0 0 0
7266 3 31.17542515730129 19.799054670593936 1.5454401245918266 0 0 0
7272 3 34.2929677558037 19.799054670593943 1.5454401245918252 0 0 0
7278 3 37.41051035430612 19.799054670593936 1.545440124591826 0 0 0
9605 3 1.5587704715285533 22.498925758276194 1.5454401245918006 0 0 0
9611 3 4.676313070030829 22.498925758276208 1.545440124591818 0 0 0
9617 3 7.793855668533195 22.498925758276208 1.5454401245918232 0 0 0
9623 3 10.911398267035596 22.498925758276208 1.5454401245918241 0 0 0
9629 3 14.02894086553801 22.498925758276208 1.545440124591825 0 0 0
9635 3 17.146483464040422 22.498925758276208 1.5454401245918252 0 0 0
9641 3 20.264026062542822 22.498925758276208 1.5454401245918243 0 0 0
9647 3 23.381568661045232 22.498925758276208 1.5454401245918241 0 0 0
9653 3 26.499111259547647 22.498925758276208 1.5454401245918234 0 0 0
9659 3 29.61665385805007 22.498925758276208 1.545440124591825 0 0 0
9665 3 32.734196456552475 22.498925758276208 1.5454401245918241 0 0 0
9671 3 35.851739055054885 22.498925758276208 1.5454401245918254 0 0 0
9677 3 38.969281653557296 22.498925758276208 1.5454401245918234 0 0 0
9612 3 3.117541770779744 25.198796845958448 1.545440124591807 0 0 0
9618 3 6.235084369282039 25.198796845958448 1.5454401245918203 0 0 0
9624 3 9.352626967784415 25.198796845958448 1.545440124591825 0 0 0
9630 3 12.47016956628682 25.198796845958448 1.5454401245918266 0 0 0
9636 3 15.587712164789226 25.198796845958462 1.5454401245918257 0 0 0
9642 3 18.705254763291638 25.198796845958448 1.5454401245918272 0 0 0
9648 3 21.82279736179405 25.198796845958462 1.5454401245918266 0 0 0
9654 3 24.94033996029647 25.198796845958462 1.5454401245918281 0 0 0
9660 3 28.057882558798877 25.198796845958462 1.5454401245918266 0 0 0
9666 3 31.17542515730129 25.198796845958448 1.5454401245918266 0 0 0
9672 3 34.2929677558037 25.198796845958462 1.5454401245918266 0 0 0
9678 3 37.41051035430612 25.198796845958462 1.5454401245918277 0 0 0
12005 3 1.5587704715285802 27.898667933640724 1.5454401245918044 0 0 0
12011 3 4.67631307003086 27.898667933640724 1.5454401245918172 0 0 0
12017 3 7.79385566853321 27.898667933640724 1.5454401245918228 0 0 0
12023 3 10.9113982670356 27.898667933640724 1.5454401245918232 0 0 0
12029 3 14.02894086553801 27.898667933640724 1.545440124591823 0 0 0
12035 3 17.146483464040422 27.898667933640724 1.545440124591825 0 0 0
12041 3 20.264026062542822 27.898667933640724 1.545440124591824 0 0 0
12047 3 23.381568661045232 27.898667933640724 1.5454401245918232 0 0 0
12053 3 26.499111259547647 27.898667933640724 1.5454401245918241 0 0 0
12059 3 29.61665385805007 27.898667933640724 1.5454401245918241 0 0 0
12065 3 32.734196456552475 27.898667933640724 1.5454401245918228 0 0 0
12071 3 35.851739055054885 27.898667933640724 1.5454401245918226 0 0 0
12077 3 38.969281653557296 27.898667933640724 1.545440124591824 0 0 0
3 2 1.558770471528548 0.8999570568180991 4.663253208741493 0 0 0
9 2 4.676313070030822 0.8999570568180952 4.663253208741489 0 0 0
8 1 3.117541770779684 1.7999140860457756 3.1043466666666792 0 0 0
14 1 6.23508436928201 1.799914086045754 3.1043466666666886 0 0 0
15 2 7.793855668533195 0.8999570568180922 4.663253208741492 0 0 0
20 1 9.352626967784392 1.799914086045748 3.10434666666669 0 0 0
21 2 10.911398267035594 0.8999570568180943 4.6632532087414935 0 0 0
26 1 12.4701695662868 1.7999140860457457 3.1043466666666877 0 0 0
27 2 14.02894086553801 0.899957056818093 4.6632532087414935 0 0 0
32 1 15.58771216478921 1.7999140860457472 3.104346666666687 0 0 0
33 2 17.146483464040422 0.8999570568180949 4.663253208741491 0 0 0
39 2 20.264026062542822 0.8999570568180939 4.66325320874149 0 0 0
38 1 18.70525476329162 1.799914086045748 3.1043466666666872 0 0 0
44 1 21.822797361794034 1.7999140860457472 3.1043466666666872 0 0 0
45 2 23.381568661045232 0.8999570568180939 4.66325320874149 0 0 0
50 1 24.940339960296445 1.7999140860457472 3.1043466666666886 0 0 0
51 2 26.499111259547647 0.8999570568180948 4.66325320874149 0 0 0
56 1 28.05788255879886 1.7999140860457472 3.1043466666666886 0 0 0
57 2 29.61665385805007 0.8999570568180948 4.663253208741489 0 0 0
62 1 31.17542515730128 1.7999140860457474 3.104346666666686 0 0 0
63 2 32.734196456552475 0.899957056818093 4.663253208741492 0 0 0
69 2 35.851739055054885 0.8999570568180936 4.663253208741492 0 0 0
68 1 34.29296775580369 1.7999140860457474 3.1043466666666837 0 0 0
74 1 37.4105103543061 1.7999140860457474 3.1043466666666886 0 0 0
75 2 38.9692816535573 0.8999570568180922 4.663253208741493 0 0 0
1 1 1.5587704715285915 4.499785173728048 3.1043466666666655 0 0 0
7 1 4.676313070030866 4.499785173728029 3.1043466666666815 0 0 0
10 2 3.1175417707797224 3.599828144500366 4.6632532087415015 0 0 0
13 1 7.793855668533214 4.499785173728015 3.1043466666666886 0 0 0
16 2 6.2350843692820295 3.5998281445003593 4.663253208741493 0 0 0
22 2 9.352626967784412 3.5998281445003597 4.663253208741492 0 0 0
19 1 10.911398267035615 4.499785173728013 3.1043466666666877 0 0 0
28 2 12.47016956628682 3.5998281445003593 4.6632532087414935 0 0 0
25 1 14.02894086553802 4.499785173728014 3.1043466666666863 0 0 0
34 2 15.587712164789226 3.5998281445003597 4.663253208741493 0 0 0
31 1 17.146483464040433 4.499785173728014 3.104346666666687 0 0 0
37 1 20.264026062542847 4.499785173728013 3.1043466666666877 0 0 0
40 2 18.705254763291638 3.5998281445003597 4.66325320874149 0 0 0
43 1 23.38156866104525 4.499785173728009 3.1043466666666886 0 0 0
46 2 21.82279736179405 3.5998281445003593 4.663253208741491 0 0 0
52 2 24.94033996029647 3.599828144500361 4.663253208741491 0 0 0
49 1 26.49911125954767 4.499785173728013 3.1043466666666886 0 0 0
58 2 28.05788255879889 3.5998281445003597 4.663253208741489 0 0 0
55 1 29.616653858050093 4.499785173728014 3.1043466666666886 0 0 0
64 2 31.17542515730129 3.599828144500364 4.663253208741493 0 0 0
61 1 32.73419645655249 4.499785173728014 3.104346666666685 0 0 0
67 1 35.85173905505491 4.499785173728013 3.1043466666666863 0 0 0
70 2 34.2929677558037 3.5998281445003597 4.663253208741493 0 0 0
73 1 38.96928165355732 4.499785173728013 3.1043466666666846 0 0 0
76 2 37.41051035430612 3.5998281445003593 4.663253208741493 0 0 0
2403 2 1.558770471528543 6.299699232182632 4.6632532087415 0 0 0
2409 2 4.676313070030822 6.2996992321826255 4.663253208741493 0 0 0
2408 1 3.117541770779683 7.199656261410306 3.1043466666666744 0 0 0
2414 1 6.235084369282009 7.199656261410282 3.1043466666666855 0 0 0
2415 2 7.793855668533195 6.2996992321826255 4.663253208741491 0 0 0
2420 1 9.352626967784397 7.199656261410275 3.1043466666666855 0 0 0
2421 2 10.9113982670356 6.2996992321826255 4.6632532087414935 0 0 0
2426 1 12.470169566286806 7.199656261410275 3.1043466666666855 0 0 0
2427 2 14.02894086553801 6.2996992321826255 4.6632532087414935 0 0 0
2432 1 15.587712164789217 7.199656261410275 3.104346666666686 0 0 0
2433 2 17.146483464040422 6.2996992321826255 4.663253208741492 0 0 0
2439 2 20.264026062542822 6.299699232182622 4.663253208741492 0 0 0
2438 1 18.705254763291627 7.199656261410278 3.104346666666686 0 0 0
2444 1 21.822797361794034 7.199656261410275 3.104346666666684 0 0 0
2445 2 23.381568661045232 6.2996992321826255 4.663253208741493 0 0 0
2450 1 24.940339960296445 7.199656261410275 3.104346666666685 0 0 0
2451 2 26.499111259547647 6.2996992321826255 4.663253208741491 0 0 0
2456 1 28.05788255879886 7.199656261410275 3.104346666666686 0 0 0
2457 2 29.61665385805007 6.2996992321826255 4.663253208741492 0 0 0
2462 1 31.17542515730128 7.199656261410275 3.104346666666685 0 0 0
2463 2 32.734196456552475 6.2996992321826255 4.663253208741493 0 0 0
2469 2 35.851739055054885 6.2996992321826255 4.663253208741492 0 0 0
2468 1 34.29296775580369 7.199656261410278 3.104346666666685 0 0 0
2474 1 37.4105103543061 7.199656261410275 3.1043466666666837 0 0 0
2475 2 38.969281653557296 6.299699232182622 4.663253208741492 0 0 0
2401 1 1.5587704715285913 9.899527349092581 3.1043466666666655 0 0 0
2407 1 4.676313070030865 9.89952734909256 3.1043466666666797 0 0 0
2410 2 3.1175417707797215 8.999570319864894 4.663253208741502 0 0 0
2413 1 7.793855668533214 9.899527349092539 3.1043466666666872 0 0 0
2416 2 6.235084369282024 8.999570319864885 4.6632532087414935 0 0 0
2422 2 9.352626967784412 8.999570319864885 4.663253208741492 0 0 0
2419 1 10.911398267035615 9.899527349092539 3.1043466666666872 0 0 0
2428 2 12.47016956628682 8.999570319864889 4.6632532087414935 0 0 0
2425 1 14.02894086553802 9.899527349092537 3.1043466666666855 0 0 0
2434 2 15.587712164789226 8.999570319864885 4.6632532087414935 0 0 0
2431 1 17.146483464040433 9.899527349092539 3.104346666666687 0 0 0
2437 1 20.264026062542847 9.899527349092537 3.1043466666666832 0 0 0
2440 2 18.70525476329164 8.999570319864889 4.663253208741492 0 0 0
2443 1 23.38156866104525 9.899527349092535 3.1043466666666837 0 0 0
2446 2 21.82279736179405 8.999570319864885 4.663253208741493 0 0 0
2452 2 24.940339960296477 8.99957031986489 4.663253208741492 0 0 0
2449 1 26.49911125954767 9.899527349092539 3.1043466666666886 0 0 0
2458 2 28.05788255879889 8.999570319864889 4.663253208741491 0 0 0
2455 1 29.616653858050093 9.89952734909254 3.1043466666666872 0 0 0
2464 2 31.17542515730129 8.99957031986489 4.663253208741492 0 0 0
2461 1 32.73419645655249 9.899527349092539 3.104346666666685 0 0 0
2467 1 35.85173905505491 9.899527349092539 3.1043466666666872 0 0 0
2470 2 34.2929677558037 8.999570319864889 4.663253208741492 0 0 0
2473 1 38.96928165355732 9.899527349092535 3.1043466666666832 0 0 0
2476 2 37.41051035430611 8.999570319864889 4.663253208741492 0 0 0
4803 2 1.5587704715285435 11.699441407547154 4.663253208741501 0 0 0
4809 2 4.676313070030822 11.699441407547154 4.663253208741493 0 0 0
4808 1 3.117541770779684 12.599398436774838 3.1043466666666757 0 0 0
4814 1 6.23508436928201 12.59939843677481 3.1043466666666863 0 0 0
4815 2 7.793855668533195 11.699441407547148 4.663253208741491 0 0 0
4820 1 9.352626967784397 12.599398436774804 3.104346666666686 0 0 0
4821 2 10.9113982670356 11.699441407547154 4.663253208741492 0 0 0
4826 1 12.470169566286806 12.599398436774804 3.104346666666684 0 0 0
4827 2 14.02894086553801 11.699441407547148 4.663253208741492 0 0 0
4832 1 15.587712164789217 12.599398436774804 3.1043466666666832 0 0 0
4833 2 17.146483464040422 11.699441407547154 4.663253208741493 0 0 0
4839 2 20.264026062542822 11.699441407547148 4.663253208741493 0 0 0
4838 1 18.705254763291627 12.599398436774804 3.104346666666683 0 0 0
4844 1 21.822797361794034 12.599398436774797 3.104346666666683 0 0 0
4845 2 23.381568661045232 11.699441407547148 4.663253208741492 0 0 0
4850 1 24.940339960296445 12.599398436774804 3.104346666666687 0 0 0
4851 2 26.499111259547647 11.699441407547154 4.663253208741489 0 0 0
4856 1 28.05788255879886 12.599398436774804 3.1043466666666886 0 0 0
4857 2 29.61665385805007 11.699441407547154 4.66325320874149 0 0 0
4862 1 31.17542515730128 12.599398436774804 3.1043466666666855 0 0 0
4863 2 32.734196456552475 11.699441407547154 4.663253208741493 0 0 0
4869 2 35.851739055054885 11.699441407547154 4.663253208741489 0 0 0
4868 1 34.29296775580369 12.599398436774804 3.1043466666666806 0 0 0
4874 1 37.4105103543061 12.599398436774804 3.1043466666666832 0 0 0
4875 2 38.969281653557296 11.699441407547148 4.663253208741492 0 0 0
4801 1 1.5587704715285915 15.299269524457102 3.104346666666668 0 0 0
4807 1 4.676313070030865 15.299269524457083 3.1043466666666832 0 0 0
4810 2 3.1175417707797215 14.399312495229418 4.663253208741504 0 0 0
4813 1 7.793855668533214 15.299269524457069 3.1043466666666886 0 0 0
4816 2 6.235084369282024 14.399312495229418 4.6632532087414935 0 0 0
4822 2 9.352626967784412 14.399312495229418 4.663253208741493 0 0 0
4819 1 10.911398267035615 15.299269524457069 3.104346666666687 0 0 0
4828 2 12.470169566286817 14.399312495229418 4.6632532087414935 0 0 0
4825 1 14.02894086553802 15.299269524457062 3.104346666666682 0 0 0
4834 2 15.587712164789226 14.399312495229418 4.663253208741493 0 0 0
4831 1 17.146483464040433 15.299269524457069 3.104346666666684 0 0 0
4837 1 20.26402606254284 15.299269524457069 3.104346666666682 0 0 0
4840 2 18.705254763291638 14.399312495229418 4.663253208741492 0 0 0
4843 1 23.38156866104525 15.299269524457062 3.104346666666685 0 0 0
4846 2 21.82279736179405 14.399312495229418 4.663253208741493 0 0 0
4852 2 24.94033996029647 14.399312495229418 4.663253208741492 0 0 0
4849 1 26.49911125954767 15.299269524457069 3.1043466666666903 0 0 0
4858 2 28.05788255879889 14.399312495229418 4.663253208741489 0 0 0
4855 1 29.616653858050086 15.299269524457069 3.1043466666666846 0 0 0
4864 2 31.17542515730129 14.399312495229418 4.663253208741492 0 0 0
4861 1 32.73419645655249 15.299269524457069 3.1043466666666832 0 0 0
4867 1 35.85173905505491 15.299269524457069 3.1043466666666837 0 0 0
4870 2 34.2929677558037 14.399312495229418 4.663253208741492 0 0 0
4873 1 38.96928165355732 15.299269524457069 3.1043466666666832 0 0 0
4876 2 37.41051035430612 14.399312495229411 4.663253208741492 0 0 0
7203 2 1.5587704715285453 17.099183582911685 4.663253208741497 0 0 0
7209 2 4.676313070030822 17.099183582911685 4.663253208741491 0 0 0
7208 1 3.117541770779684 17.999140612139357 3.104346666666681 0 0 0
7214 1 6.235084369282009 17.999140612139335 3.1043466666666855 0 0 0
7215 2 7.793855668533195 17.099183582911678 4.663253208741492 0 0 0
7220 1 9.352626967784397 17.99914061213933 3.104346666666687 0 0 0
7221 2 10.9113982670356 17.099183582911678 4.6632532087414935 0 0 0
7226 1 12.470169566286806 17.99914061213933 3.1043466666666863 0 0 0
7227 2 14.02894086553801 17.099183582911678 4.663253208741493 0 0 0
7232 1 15.58771216478921 17.99914061213933 3.1043466666666837 0 0 0
7233 2 17.146483464040422 17.099183582911685 4.663253208741493 0 0 0
7239 2 20.264026062542822 17.099183582911678 4.663253208741493 0 0 0
7238 1 18.70525476329162 17.99914061213933 3.104346666666682 0 0 0
7244 1 21.822797361794034 17.99914061213933 3.1043466666666837 0 0 0
7245 2 23.381568661045232 17.099183582911678 4.663253208741491 0 0 0
7250 1 24.94033996029645 17.99914061213933 3.104346666666687 0 0 0
7251 2 26.499111259547647 17.099183582911685 4.66325320874149 0 0 0
7256 1 28.05788255879886 17.99914061213933 3.1043466666666877 0 0 0
7257 2 29.61665385805007 17.099183582911678 4.66325320874149 0 0 0
7262 1 31.17542515730128 17.99914061213933 3.1043466666666877 0 0 0
7263 2 32.734196456552475 17.099183582911685 4.663253208741492 0 0 0
7269 2 35.851739055054885 17.099183582911678 4.66325320874149 0 0 0
7268 1 34.2929677558037 17.999140612139332 3.104346666666681 0 0 0
7274 1 37.4105103543061 17.99914061213933 3.104346666666684 0 0 0
7275 2 38.969281653557296 17.099183582911678 4.663253208741491 0 0 0
7201 1 1.5587704715285957 20.699011699821625 3.1043466666666775 0 0 0
7207 1 4.6763130700308695 20.69901169982161 3.1043466666666846 0 0 0
7210 2 3.1175417707797264 19.799054670593943 4.663253208741498 0 0 0
7213 1 7.793855668533215 20.699011699821597 3.104346666666686 0 0 0
7216 2 6.2350843692820295 19.799054670593936 4.663253208741491 0 0 0
7222 2 9.352626967784412 19.799054670593936 4.663253208741491 0 0 0
7219 1 10.91139826703561 20.69901169982159 3.1043466666666855 0 0 0
7228 2 12.47016956628682 19.799054670593936 4.663253208741492 0 0 0
7225 1 14.02894086553802 20.69901169982159 3.1043466666666837 0 0 0
7234 2 15.587712164789226 19.799054670593936 4.663253208741493 0 0 0
7231 1 17.146483464040433 20.69901169982159 3.1043466666666824 0 0 0
7237 1 20.264026062542847 20.69901169982159 3.1043466666666832 0 0 0
7240 2 18.705254763291638 19.799054670593936 4.663253208741492 0 0 0
7243 1 23.38156866104525 20.69901169982159 3.104346666666686 0 0 0
7246 2 21.82279736179405 19.799054670593936 4.663253208741492 0 0 0
7252 2 24.94033996029647 19.799054670593936 4.663253208741491 0 0 0
7249 1 26.49911125954767 20.69901169982159 3.1043466666666872 0 0 0
7258 2 28.05788255879889 19.799054670593936 4.66325320874149 0 0 0
7255 1 29.616653858050093 20.69901169982159 3.1043466666666872 0 0 0
7264 2 31.17542515730129 19.799054670593936 4.663253208741491 0 0 0
7261 1 32.73419645655249 20.699011699821597 3.1043466666666886 0 0 0
7267 1 35.85173905505491 20.699011699821597 3.1043466666666832 0 0 0
7270 2 34.2929677558037 19.799054670593936 4.663253208741491 0 0 0
7273 1 38.96928165355732 20.699011699821597 3.104346666666686 0 0 0
7276 2 37.41051035430612 19.799054670593936 4.663253208741489 0 0 0
9603 2 1.5587704715285478 22.498925758276194 4.6632532087414935 0 0 0
9609 2 4.676313070030828 22.498925758276208 4.663253208741491 0 0 0
9608 1 3.1175417707796855 23.39888278750386 3.1043466666666797 0 0 0
9614 1 6.235084369282012 23.398882787503855 3.1043466666666846 0 0 0
9615 2 7.793855668533193 22.498925758276208 4.663253208741492 0 0 0
9620 1 9.352626967784396 23.398882787503855 3.104346666666687 0 0 0
9621 2 10.911398267035596 22.498925758276208 4.6632532087414935 0 0 0
9626 1 12.4701695662868 23.398882787503855 3.1043466666666886 0 0 0
9627 2 14.02894086553801 22.498925758276208 4.6632532087414935 0 0 0
9632 1 15.58771216478921 23.398882787503855 3.104346666666682 0 0 0
9633 2 17.146483464040422 22.498925758276208 4.663253208741493 0 0 0
9639 2 20.264026062542822 22.498925758276208 4.663253208741494 0 0 0
9638 1 18.70525476329162 23.398882787503855 3.104346666666683 0 0 0
9644 1 21.822797361794034 23.398882787503855 3.1043466666666837 0 0 0
9645 2 23.381568661045232 22.498925758276208 4.663253208741493 0 0 0
9650 1 24.94033996029645 23.398882787503855 3.1043466666666872 0 0 0
9651 2 26.499111259547647 22.498925758276208 4.6632532087414935 0 0 0
9656 1 28.05788255879886 23.398882787503855 3.104346666666687 0 0 0
9657 2 29.61665385805007 22.498925758276208 4.663253208741493 0 0 0
9662 1 31.17542515730128 23.398882787503855 3.1043466666666846 0 0 0
9663 2 32.734196456552475 22.498925758276208 4.663253208741494 0 0 0
9669 2 35.851739055054885 22.498925758276208 4.663253208741493 0 0 0
9668 1 34.29296775580369 23.39888278750387 3.1043466666666815 0 0 0
9674 1 37.4105103543061 23.39888278750386 3.1043466666666815 0 0 0
9675 2 38.969281653557296 22.498925758276208 4.663253208741494 0 0 0
9601 1 1.5587704715286188 26.098753875186137 3.1043466666666735 0 0 0
9607 1 4.676313070030881 26.098753875186134 3.10434666666668 0 0 0
9610 2 3.117541770779739 25.198796845958448 4.663253208741497 0 0 0
9613 1 7.7938556685332205 26.09875387518612 3.1043466666666872 0 0 0
9616 2 6.235084369282034 25.198796845958448 4.663253208741493 0 0 0
9622 2 9.352626967784415 25.198796845958448 4.663253208741491 0 0 0
9619 1 10.911398267035615 26.09875387518612 3.1043466666666863 0 0 0
9628 2 12.47016956628682 25.198796845958462 4.66325320874149 0 0 0
9625 1 14.02894086553802 26.098753875186123 3.1043466666666872 0 0 0
9634 2 15.587712164789226 25.198796845958448 4.663253208741491 0 0 0
9631 1 17.146483464040433 26.09875387518612 3.104346666666687 0 0 0
9637 1 20.264026062542847 26.09875387518612 3.1043466666666837 0 0 0
9640 2 18.705254763291638 25.198796845958448 4.663253208741491 0 0 0
9643 1 23.38156866104525 26.098753875186123 3.104346666666687 0 0 0
9646 2 21.82279736179405 25.198796845958462 4.66325320874149 0 0 0
9652 2 24.94033996029647 25.198796845958462 4.66325320874149 0 0 0
9649 1 26.49911125954767 26.098753875186134 3.104346666666691 0 0 0
9658 2 28.05788255879889 25.198796845958462 4.663253208741489 0 0 0
9655 1 29.616653858050086 26.09875387518612 3.1043466666666837 0 0 0
9664 2 31.17542515730129 25.198796845958462 4.663253208741488 0 0 0
9661 1 32.73419645655249 26.09875387518612 3.1043466666666824 0 0 0
9667 1 35.85173905505491 26.09875387518612 3.104346666666682 0 0 0
9670 2 34.2929677558037 25.198796845958462 4.66325320874149 0 0 0
9673 1 38.96928165355732 26.09875387518612 3.1043466666666806 0 0 0
9676 2 37.41051035430612 25.198796845958462 4.663253208741492 0 0 0
12003 2 1.5587704715285757 27.898667933640724 4.663253208741498 0 0 0
12009 2 4.676313070030857 27.898667933640724 4.6632532087414935 0 0 0
12015 2 7.793855668533206 27.898667933640724 4.663253208741493 0 0 0
12021 2 10.9113982670356 27.898667933640724 4.663253208741494 0 0 0
12027 2 14.02894086553801 27.898667933640724 4.6632532087414935 0 0 0
12033 2 17.146483464040422 27.898667933640724 4.663253208741492 0 0 0
12039 2 20.264026062542822 27.898667933640724 4.6632532087414935 0 0 0
12045 2 23.381568661045232 27.898667933640724 4.663253208741493 0 0 0
12051 2 26.499111259547647 27.898667933640724 4.663253208741493 0 0 0
12057 2 29.61665385805007 27.898667933640724 4.66325320874149 0 0 0
12063 2 32.734196456552475 27.898667933640724 4.663253208741493 0 0 0
12069 2 35.851739055054885 27.898667933640724 4.663253208741492 0 0 0
12075 2 38.969281653557296 27.898667933640724 4.663253208741494 0 0 0
12012 3 3.1175417707797575 30.598539021322964 1.5454401245918061 0 0 0
12018 3 6.235084369282046 30.598539021322978 1.5454401245918197 0 0 0
12024 3 9.35262696778442 30.598539021322978 1.545440124591826 0 0 0
12030 3 12.47016956628682 30.598539021322978 1.5454401245918252 0 0 0
12036 3 15.587712164789226 30.598539021322978 1.5454401245918243 0 0 0
12042 3 18.705254763291638 30.598539021322978 1.5454401245918254 0 0 0
12048 3 21.82279736179405 30.598539021322978 1.545440124591825 0 0 0
12054 3 24.94033996029647 30.598539021322992 1.5454401245918268 0 0 0
12060 3 28.057882558798877 30.598539021322992 1.545440124591825 0 0 0
12066 3 31.17542515730129 30.598539021322978 1.545440124591825 0 0 0
12072 3 34.2929677558037 30.598539021322978 1.5454401245918243 0 0 0
12078 3 37.41051035430611 30.598539021322978 1.5454401245918252 0 0 0
14405 3 1.5587704715285826 33.29841010900524 1.5454401245918035 0 0 0
14411 3 4.6763130700308615 33.29841010900525 1.5454401245918155 0 0 0
14417 3 7.79385566853321 33.29841010900525 1.5454401245918254 0 0 0
14423 3 10.9113982670356 33.29841010900524 1.5454401245918241 0 0 0
14429 3 14.02894086553801 33.29841010900525 1.545440124591825 0 0 0
14435 3 17.146483464040422 33.29841010900525 1.545440124591826 0 0 0
14441 3 20.264026062542822 33.29841010900525 1.5454401245918241 0 0 0
14447 3 23.38156866104525 33.29841010900525 1.5454401245918257 0 0 0
14453 3 26.499111259547647 33.29841010900525 1.5454401245918286 0 0 0
14459 3 29.61665385805007 33.29841010900525 1.5454401245918266 0 0 0
14465 3 32.734196456552475 33.29841010900525 1.5454401245918241 0 0 0
14471 3 35.851739055054885 33.29841010900524 1.5454401245918241 0 0 0
14477 3 38.969281653557296 33.29841010900525 1.545440124591826 0 0 0
14412 3 3.1175417707797366 35.99828119668753 1.5454401245918028 0 0 0
14418 3 6.235084369282041 35.99828119668753 1.5454401245918161 0 0 0
14424 3 9.352626967784415 35.9982811966875 1.545440124591825 0 0 0
14430 3 12.470169566286817 35.998281196687515 1.5454401245918266 0 0 0
14436 3 15.587712164789226 35.998281196687515 1.5454401245918272 0 0 0
14442 3 18.705254763291638 35.998281196687515 1.5454401245918266 0 0 0
14448 3 21.82279736179405 35.998281196687515 1.5454401245918226 0 0 0
14454 3 24.940339960296477 35.998281196687515 1.5454401245918266 0 0 0
14460 3 28.057882558798877 35.998281196687515 1.5454401245918272 0 0 0