LAMMPS data file via write_data, version 2 Aug 2023, timestep = 1110, units = metal

38080 atoms
3 atom types

0 1247.0156873341214 xlo xhi
0 86.39582345847674 ylo yhi
0 50 zlo zhi
0 0 0 xy xz yz

Masses

1 95.94
2 32.065
3 32.065

Atoms # atomic

1 3 1.5586924575712062 0.8999378562824843 1.5458822697861578 0 0 0
2 3 4.67608314934754 0.8999490816152474 1.5458704844992026 0 0 0
3 3 7.793561053302637 0.8999723527233424 1.5459450409995872 0 0 0
4 3 10.91109837035704 0.8999318573763605 1.545859051887815 0 0 0
5 3 14.028603647872496 0.8999285546657263 1.5456595977358987 0 0 0
6 3 17.14618612246298 0.8999592054704204 1.5454191357689095 0 0 0
7 3 20.26380121837331 0.8999826583271404 1.5452751300593617 0 0 0
8 3 23.38138868885808 0.8999679312561831 1.5452283383885792 0 0 0
9 3 26.499001305100673 0.8999696297992141 1.545288989112029 0 0 0
10 3 29.616556351290054 0.8999535276546204 1.5454647360009623 0 0 0
11 3 32.7340280985737 0.8999541867245714 1.5455300225855808 0 0 0
12 3 3.1173844656884957 3.599814520139361 1.5458604793517197 0 0 0
13 3 6.234804765181503 3.5998110268300096 1.5459783674797378 0 0 0
14 3 9.35235694260489 3.5998253191164546 1.5459020356227315 0 0 0
15 3 12.46984009445461 3.599798613229437 1.5457771804631566 0 0 0
16 3 15.587382702930732 3.59980746412378 1.5455332782891624 0 0 0
17 3 18.704992718979756 3.599846975583378 1.5453313635518473 0 0 0
18 3 21.82259526130806 3.5998433443949605 1.545242529452546 0 0 0
19 3 24.940192178053245 3.5998387801386156 1.5452395332255213 0 0 0
20 3 28.057797044919074 3.5998321354094704 1.5453739250658727 0 0 0
21 3 31.175291451063856 3.5998195086014637 1.5455228475964262 0 0 0
22 3 34.29279247066284 3.5998305048880894 1.5454984716823539 0 0 0
23 3 1.5586924575710615 6.2996768224409765 1.5458822697756922 0 0 0
24 3 4.676083149347302 6.299688047767782 1.5458704845014104 0 0 0
25 3 7.793561053303819 6.299711318881481 1.545945040999907 0 0 0
26 3 10.9110983703577 6.299670823533032 1.5458590518872557 0 0 0
27 3 14.02860364787363 6.2996675208154755 1.5456595977389238 0 0 0
28 3 17.14618612246275 6.299698171616948 1.5454191357733191 0 0 0
29 3 20.263801218371054 6.299721624478618 1.5452751300593315 0 0 0
30 3 23.38138868885944 6.29970689740851 1.545228338391149 0 0 0
31 3 26.499001305098165 6.299708595950522 1.545288989114196 0 0 0
32 3 29.61655635128809 6.29969249380967 1.5454647360009237 0 0 0
33 3 32.73402809857425 6.299693152878792 1.545530022588298 0 0 0
34 3 3.1173844656911984 8.999553486293973 1.545860479350998 0 0 0
35 3 6.23480476518274 8.999549992984717 1.5459783674803442 0 0 0
36 3 9.352356942604576 8.9995642852677 1.5459020356225346 0 0 0
37 3 12.469840094453932 8.999537579382395 1.5457771804640505 0 0 0
38 3 15.587382702930277 8.99954643027695 1.54553327829 0 0 0
39 3 18.704992718980076 8.999585941739351 1.5453313635539707 0 0 0
40 3 21.82259526130567 8.99958231054881 1.5452425294517198 0 0 0
41 3 24.940192178051237 8.999577746292882 1.5452395332290303 0 0 0
42 3 28.057797044920235 8.99957110156347 1.5453739250650649 0 0 0
43 3 31.17529145106366 8.999558474755824 1.5455228475960006 0 0 0
44 3 34.29279247066189 8.99956947104422 1.5454984716812967 0 0 0
45 3 1.5586924575698757 11.699415788597914 1.5458822697735115 0 0 0
46 3 4.6760831493482335 11.69942701392011 1.545870484504076 0 0 0
47 3 7.793561053303852 11.699450285038456 1.545945040998312 0 0 0
48 3 10.911098370357392 11.699409789688465 1.545859051888819 0 0 0
49 3 14.028603647871307 11.699406486969048 1.5456595977409782 0 0 0
50 3 17.14618612246107 11.699437137768896 1.545419135774004 0 0 0
51 3 20.263801218370553 11.699460590633507 1.5452751300599599 0 0 0
52 3 23.38138868885795 11.69944586356186 1.545228338390356 0 0 0
53 3 26.499001305098062 11.699447562104153 1.5452889891157273 0 0 0
54 3 29.616556351287784 11.699431459966403 1.5454647360000835 0 0 0
55 3 32.734028098569155 11.699432119031814 1.545530022585623 0 0 0
56 3 3.1173844656878673 14.399292452450354 1.5458604793526391 0 0 0
57 3 6.234804765182904 14.399288959140987 1.5459783674788348 0 0 0
58 3 9.352356942605134 14.399303251423516 1.545902035623613 0 0 0
59 3 12.469840094454026 14.399276545539031 1.5457771804640152 0 0 0
60 3 15.587382702930952 14.399285396430615 1.5455332782889404 0 0 0
61 3 18.70499271897892 14.399324907894048 1.5453313635534016 0 0 0
62 3 21.822595261307537 14.399321276704757 1.5452425294537124 0 0 0
63 3 24.940192178052758 14.399316712446783 1.545239533228098 0 0 0
64 3 28.057797044915667 14.399310067717343 1.5453739250630418 0 0 0
65 3 31.175291451063128 14.39929744090909 1.5455228475951208 0 0 0
66 3 34.29279247066117 14.399308437195964 1.5454984716815499 0 0 0
67 3 1.5586924575711307 17.099154754749225 1.545882269773784 0 0 0
68 3 4.676083149348365 17.09916598007664 1.5458704845016842 0 0 0
69 3 7.793561053302219 17.099189251192985 1.5459450409982833 0 0 0
70 3 10.911098370356397 17.099148755843814 1.5458590518862854 0 0 0
71 3 14.028603647872686 17.09914545312541 1.5456595977413776 0 0 0
72 3 17.14618612246011 17.099176103924552 1.5454191357756621 0 0 0
73 3 20.263801218371807 17.099199556786562 1.5452751300621035 0 0 0
74 3 23.381388688857133 17.099184829718016 1.545228338389583 0 0 0
75 3 26.49900130509948 17.099186528259878 1.5452889891173165 0 0 0
76 3 29.616556351287876 17.099170426119386 1.5454647360013956 0 0 0
77 3 32.73402809857028 17.099171085185255 1.5455300225886048 0 0 0
78 3 3.117384465686961 19.799031418603917 1.5458604793510073 0 0 0
79 3 6.234804765182704 19.799027925295803 1.5459783674776582 0 0 0
80 3 9.352356942605168 19.799042217577494 1.545902035624822 0 0 0
81 3 12.469840094451122 19.799015511691323 1.545777180462873 0 0 0
82 3 15.5873827029318 19.79902436258392 1.5455332782879154 0 0 0
83 3 18.704992718978097 19.799063874048365 1.545331363553422 0 0 0
84 3 21.822595261306862 19.79906024286086 1.5452425294516028 0 0 0
85 3 24.940192178053234 19.79905567860376 1.5452395332311966 0 0 0
86 3 28.057797044916924 19.79904903387322 1.5453739250611673 0 0 0
87 3 31.175291451064215 19.79903640706324 1.5455228475983214 0 0 0
88 3 34.29279247066314 19.799047403351437 1.5454984716801072 0 0 0
89 3 1.5586924575707048 22.498893720904256 1.5458822697740726 0 0 0
90 3 4.6760831493499655 22.498904946233612 1.5458704845002729 0 0 0
91 3 7.793561053304336 22.498928217347185 1.5459450409975786 0 0 0
92 3 10.91109837036044 22.4988877219996 1.5458590518882305 0 0 0
93 3 14.028603647872796 22.498884419278788 1.545659597742423 0 0 0
94 3 17.146186122459167 22.49891507008358 1.5454191357787317 0 0 0
95 3 20.26380121837229 22.498938522941664 1.545275130060303 0 0 0
96 3 23.381388688857452 22.498923795871598 1.5452283383890193 0 0 0
97 3 26.499001305100457 22.498925494415065 1.545288989117055 0 0 0
98 3 29.61655635128878 22.498909392275447 1.545464736001453 0 0 0
99 3 32.734028098571706 22.498910051341397 1.5455300225874737 0 0 0
100 3 3.117384465686067 25.198770384759314 1.5458604793499635 0 0 0
101 3 6.234804765181413 25.198766891446546 1.5459783674802214 0 0 0
102 3 9.352356942606951 25.198781183732276 1.5459020356227122 0 0 0
103 3 12.469840094452417 25.19875447784783 1.5457771804612936 0 0 0
104 3 15.587382702932066 25.198763328742345 1.5455332782869124 0 0 0
105 3 18.70499271897877 25.198802840200283 1.5453313635521213 0 0 0
106 3 21.822595261308383 25.19879920901487 1.5452425294539403 0 0 0
107 3 24.94019217805037 25.19879464475744 1.5452395332269786 0 0 0
108 3 28.057797044918953 25.19878800002862 1.5453739250643583 0 0 0
109 3 31.17529145106426 25.198775373219544 1.5455228475998872 0 0 0
110 3 34.29279247066319 25.198786369508216 1.545498471679503 0 0 0
111 3 1.558692457570014 27.898632687057002 1.5458822697718968 0 0 0
112 3 4.676083149350987 27.89864391238788 1.5458704844977373 0 0 0
113 3 7.793561053302686 27.89866718350194 1.5459450410014388 0 0 0
114 3 10.911098370358987 27.898626688153904 1.545859051889772 0 0 0
115 3 14.028603647871833 27.89862338543382 1.545659597740641 0 0 0
116 3 17.146186122460225 27.89865403623872 1.5454191357792952 0 0 0
117 3 20.263801218370112 27.898677489097164 1.5452751300599568 0 0 0
118 3 23.381388688858966 27.898662762027037 1.5452283383910919 0 0 0
119 3 26.499001305100947 27.898664460568696 1.5452889891171728 0 0 0
120 3 29.616556351288043 27.8986483584313 1.5454647359954974 0 0 0
121 3 32.734028098571684 27.89864901749641 1.545530022586435 0 0 0
122 3 3.117384465692997 30.59850935091497 1.5458604793404676 0 0 0
123 3 6.234804765182277 30.59850585760214 1.545978367479495 0 0 0
124 3 9.352356942606017 30.598520149887694 1.5459020356183601 0 0 0
125 3 12.469840094456496 30.59849344400086 1.5457771804630105 0 0 0
126 3 15.587382702928004 30.59850229489739 1.545533278286352 0 0 0
127 3 18.704992718981117 30.598541806354863 1.5453313635520893 0 0 0
128 3 21.822595261308514 30.598538175170514 1.5452425294525038 0 0 0
129 3 24.94019217805053 30.598533610909453 1.5452395332253326 0 0 0
130 3 28.05779704491798 30.598526966182558 1.5453739250663667 0 0 0
131 3 31.17529145105957 30.598514339375797 1.545522847598144 0 0 0
132 3 34.292792470661105 30.59852533566167 1.545498471679104 0 0 0
133 3 1.5586924575666699 33.29837165321739 1.5458822697575503 0 0 0
134 3 4.676083149352124 33.298382878540245 1.5458704844979698 0 0 0
135 3 7.793561053304002 33.29840614965707 1.5459450410040614 0 0 0
136 3 10.91109837035704 33.2983656543076 1.5458590518895927 0 0 0
137 3 14.028603647869486 33.298362351591855 1.5456595977391603 0 0 0
138 3 17.146186122462957 33.298393002388174 1.5454191357767275 0 0 0
139 3 20.263801218370478 33.29841645525366 1.5452751300601193 0 0 0
140 3 23.381388688857683 33.29840172818011 1.5452283383927232 0 0 0
141 3 26.49900130510212 33.29840342671984 1.5452889891118828 0 0 0
142 3 29.61655635128855 33.29838732458728 1.5454647359991416 0 0 0
143 3 32.73402809857337 33.29838798365007 1.5455300225888373 0 0 0
144 3 3.1173844656892924 35.998248317072544 1.5458604793344837 0 0 0
145 3 6.234804765181422 35.99824482375673 1.5459783674779197 0 0 0
146 3 9.352356942606558 35.998259116045205 1.5459020356176734 0 0 0
147 3 12.46984009445486 35.9982324101551 1.5457771804657487 0 0 0
148 3 15.587382702929604 35.99824126104553 1.5455332782881244 0 0 0
149 3 18.70499271898063 35.998280772508004 1.5453313635549732 0 0 0
150 3 21.8225952613044 35.99827714132436 1.5452425294491554 0 0 0
151 3 24.940192178053213 35.99827257706251 1.5452395332322582 0 0 0
152 3 28.05779704491978 35.998265932337695 1.5453739250666716 0 0 0
153 3 31.175291451065963 35.99825330552917 1.5455228475926428 0 0 0
154 3 34.29279247066339 35.99826430181186 1.5454984716811853 0 0 0
155 3 1.5586924575721532 38.69811061937093 1.5458822697541685 0 0 0
156 3 4.676083149349874 38.69812184469628 1.545870484495459 0 0 0
157 3 7.7935610533011666 38.698145115811975 1.5459450410056526 0 0 0
158 3 10.911098370357644 38.69810462046461 1.5458590518882984 0 0 0
159 3 14.028603647871284 38.698101317747685 1.5456595977400223 0 0 0
160 3 17.146186122458897 38.6981319685459 1.5454191357805225 0 0 0
161 3 20.26380121837294 38.69815542141371 1.5452751300604992 0 0 0
162 3 23.381388688858877 38.69814069433361 1.5452283383974044 0 0 0
163 3 26.49900130510008 38.698142392879994 1.5452889891188795 0 0 0
164 3 29.6165563512897 38.69812629073798 1.54546473599983 0 0 0
165 3 32.73402809857562 38.698126949803324 1.5455300225915434 0 0 0
166 3 3.1173844656866385 41.39798728322403 1.5458604793379982 0 0 0
167 3 6.234804765182083 41.39798378991638 1.5459783674823129 0 0 0
168 3 9.352356942604386 41.39799808220083 1.5459020356223903 0 0 0
169 3 12.469840094454437 41.39797137631171 1.5457771804657034 0 0 0
170 3 15.587382702927998 41.39798022720197 1.5455332782867126 0 0 0
171 3 18.70499271898023 41.39801973866303 1.5453313635514192 0 0 0
172 3 21.8225952613036 41.398016107480224 1.5452425294440715 0 0 0
173 3 24.940192178053252 41.398011543221436 1.5452395332257498 0 0 0
174 3 28.05779704491997 41.39800489849494 1.5453739250629472 0 0 0
175 3 31.175291451066652 41.39799227168124 1.5455228475969776 0 0 0
176 3 34.29279247066259 41.39800326797551 1.5454984716783269 0 0 0
179 1 3.1173868149048167 1.7999382463275195 3.1048590738080777 0 0 0
180 2 7.793649838567332 0.8999615760970472 4.6637387078204195 0 0 0
181 1 6.234771376920014 1.7998746445880422 3.1048892838432 0 0 0
182 1 9.352387553155186 1.7999131714909182 3.104808043978217 0 0 0
183 2 10.911228119309996 0.8999586036462983 4.66367048628409 0 0 0
184 1 12.469944843759441 1.7998886572459876 3.1046815198239837 0 0 0
185 2 14.028839230525213 0.8999301401489614 4.663471737181565 0 0 0
186 1 15.58749884412677 1.7998901949457187 3.1044389822866862 0 0 0
187 2 17.14638423812207 0.8999484449445998 4.663229852974816 0 0 0
188 2 20.26388465425641 0.8999740696276468 4.663086859741983 0 0 0
189 1 18.705060612969493 1.799923458010535 3.1042326986426345 0 0 0
190 2 23.381394838428953 0.8999638471878635 4.663041412438134 0 0 0
191 1 21.822619702184824 1.7999284996770715 3.1041498821935107 0 0 0
192 2 26.49887350064192 0.8999512662269415 4.6631022053078395 0 0 0
193 1 24.940165671152002 1.7999177048098807 3.104146426903361 0 0 0
194 1 28.057710201801854 1.7999163129255342 3.104279359011752 0 0 0
195 2 29.61641096818771 0.8999686336817968 4.663277459211461 0 0 0
196 1 31.175260964430272 1.799915428460015 3.1044326962598086 0 0 0
197 2 32.73405418144346 0.899969012927302 4.66334051114623 0 0 0
198 1 34.29282877090883 1.7999111569947428 3.1044036891302618 0 0 0
199 1 1.5587037132622135 4.4997830093999305 3.104865665286189 0 0 0
200 1 4.676033708280736 4.499820477850691 3.1048792125755114 0 0 0
202 1 7.793617176600647 4.499782498949018 3.1048330833535758 0 0 0
203 2 6.234866747472343 3.599842641086169 4.663741121168029 0 0 0
204 2 9.352418696001259 3.599826157151857 4.663718086061309 0 0 0
205 1 10.911167414658273 4.499768390787101 3.104769800088193 0 0 0
206 2 12.470043457164698 3.599808352335396 4.663589631463353 0 0 0
207 1 14.028720459338778 4.49975375579909 3.1045662593055328 0 0 0
208 2 15.587619109219201 3.5998036375505222 4.6633447272977895 0 0 0
209 1 17.146276506941607 4.499775872034556 3.10432118788369 0 0 0
210 1 20.263840032551276 4.499800676217504 3.1041774075884483 0 0 0
211 2 18.705133165951 3.599835326130456 4.663142370860977 0 0 0
212 1 23.38139308003501 4.499791311012194 3.104137304591097 0 0 0
213 2 21.82263738572148 3.5998430310963734 4.663054749335466 0 0 0
214 1 26.49893856702561 4.499785854871719 3.104193594263303 0 0 0
215 2 24.940138597166765 3.5998236358887166 4.663052398673473 0 0 0
216 2 28.057625299654585 3.599827739969284 4.663187086964909 0 0 0
217 1 29.61648483025841 4.49978582467163 3.1043729921306293 0 0 0
218 2 31.17522967719415 3.599842576571405 4.663334825820575 0 0 0
219 1 32.73404255089585 4.499782993117244 3.1044383134342475 0 0 0
220 2 34.29286295080006 3.599830767834072 4.663307665106626 0 0 0
223 1 3.1173868149065767 7.199677212482314 3.104859073811716 0 0 0
224 2 7.793649838565482 6.299700542254966 4.663738707825866 0 0 0
225 1 6.2347713769202775 7.199613610743305 3.10488928384364 0 0 0
226 1 9.352387553151514 7.199652137648596 3.104808043967272 0 0 0
227 2 10.911228119313126 6.299697569796998 4.663670486282563 0 0 0
228 1 12.469944843754647 7.199627623404359 3.1046815198230973 0 0 0
229 2 14.028839230526355 6.299669106297529 4.663471737177349 0 0 0
230 1 15.58749884412485 7.199629161102785 3.104438982286842 0 0 0
231 2 17.146384238122632 6.29968741109222 4.66322985296842 0 0 0
232 2 20.263884654255 6.299713035782892 4.663086859739843 0 0 0
233 1 18.705060612973465 7.199662424166091 3.1042326986474236 0 0 0
234 2 23.381394838427244 6.299702813341141 4.663041412436353 0 0 0
235 1 21.822619702187342 7.199667465837431 3.104149882201387 0 0 0
236 2 26.498873500641157 6.299690232374182 4.663102205301468 0 0 0
237 1 24.940165671153032 7.199656670964817 3.10414642689739 0 0 0
238 1 28.05771020180563 7.199655279082009 3.104279359012905 0 0 0
239 2 29.61641096818551 6.299707599840233 4.6632774592175394 0 0 0
240 1 31.175260964434294 7.1996543946175775 3.1044326962591136 0 0 0
241 2 32.73405418144517 6.299707979081991 4.663340511141664 0 0 0
242 1 34.292828770900634 7.199650123146913 3.1044036891346085 0 0 0
243 1 1.5587037132651602 9.899521975555126 3.104865665294093 0 0 0
244 1 4.676033708276429 9.899559444008762 3.1048792125678313 0 0 0
246 1 7.793617176597953 9.899521465100309 3.1048330833585007 0 0 0
247 2 6.234866747477247 8.999581607239552 4.663741121168877 0 0 0
248 2 9.352418695999901 8.999565123307093 4.663718086062864 0 0 0
249 1 10.91116741466271 9.89950735694425 3.1047698000911232 0 0 0
250 2 12.470043457163325 8.99954731848928 4.663589631461718 0 0 0
251 1 14.028720459338649 9.899492721958879 3.1045662593044714 0 0 0
252 2 15.587619109218153 8.999542603703167 4.663344727299208 0 0 0
253 1 17.14627650694429 9.89951483819472 3.104321187879444 0 0 0
254 1 20.263840032550124 9.899539642370215 3.1041774075847437 0 0 0
255 2 18.7051331659513 8.999574292284217 4.663142370860729 0 0 0
256 1 23.381393080042848 9.899530277169166 3.104137304589555 0 0 0
257 2 21.822637385719595 8.999581997247443 4.663054749334941 0 0 0
258 1 26.498938567024464 9.899524821031832 3.1041935942630436 0 0 0
259 2 24.94013859716487 8.999562602044643 4.663052398673953 0 0 0
260 2 28.05762529965679 8.999566706123455 4.663187086962944 0 0 0
261 1 29.616484830256894 9.899524790823115 3.1043729921348637 0 0 0
262 2 31.175229677192306 8.999581542725723 4.663334825820288 0 0 0
263 1 32.73404255089868 9.899521959270585 3.104438313431475 0 0 0
264 2 34.29286295080014 8.999569733988954 4.663307665106292 0 0 0
267 1 3.1173868149098283 12.5994161786377 3.1048590738147874 0 0 0
268 2 7.7936498385651225 11.69943950841027 4.663738707824475 0 0 0
269 1 6.234771376921066 12.599352576896065 3.1048892838446687 0 0 0
270 1 9.352387553151571 12.599391103801672 3.104808043966457 0 0 0
271 2 10.91122811931237 11.699436535951042 4.663670486281376 0 0 0
272 1 12.469944843756355 12.599366589553911 3.1046815198203643 0 0 0
273 2 14.028839230524822 11.69940807245086 4.663471737176418 0 0 0
274 1 15.587498844127763 12.599368127260579 3.1044389822883445 0 0 0
275 2 17.146384238121282 11.699426377245635 4.663229852967344 0 0 0
276 2 20.26388465425409 11.699452001939573 4.663086859738722 0 0 0
277 1 18.705060612977444 12.599401390320873 3.1042326986507365 0 0 0
278 2 23.38139483842605 11.699441779495213 4.663041412436043 0 0 0
279 1 21.82261970218709 12.599406431991858 3.104149882202981 0 0 0
280 2 26.498873500640293 11.699429198527685 4.663102205299894 0 0 0
281 1 24.94016567115611 12.599395637121532 3.1041464268989807 0 0 0
282 1 28.05771020180628 12.599394245235196 3.1042793590112714 0 0 0
283 2 29.61641096818503 11.69944656599531 4.663277459218521 0 0 0
284 1 31.175260964436383 12.599393360771433 3.1044326962566764 0 0 0
285 2 32.734054181440705 11.699446945235385 4.663340511146953 0 0 0
286 1 34.292828770915655 12.599389089308062 3.104403689134722 0 0 0
287 1 1.5587037132638901 15.299260941710234 3.1048656652846915 0 0 0
288 1 4.676033708280672 15.299298410159816 3.104879212573771 0 0 0
290 1 7.793617176597007 15.299260431253611 3.10483308335791 0 0 0
291 2 6.234866747474464 14.39932057339663 4.663741121165978 0 0 0
292 2 9.35241869600085 14.399304089463232 4.663718086062678 0 0 0
293 1 10.911167414661199 15.299246323093797 3.104769800090835 0 0 0
294 2 12.470043457164419 14.399286284647225 4.663589631461169 0 0 0
295 1 14.028720459335668 15.299231688111027 3.104566259308559 0 0 0
296 2 15.587619109217936 14.399281569857143 4.663344727297203 0 0 0
297 1 17.146276506945426 15.299253804348423 3.104321187879995 0 0 0
298 1 20.26384003255224 15.299278608529988 3.104177407581756 0 0 0
299 2 18.70513316594935 14.399313258437749 4.663142370860911 0 0 0
300 1 23.381393080034186 15.299269243321461 3.104137304590572 0 0 0
301 2 21.822637385722416 14.39932096340263 4.6630547493332966 0 0 0
302 1 26.498938567028347 15.299263787184103 3.104193594259017 0 0 0
303 2 24.94013859716508 14.399301568197673 4.663052398675685 0 0 0
304 2 28.057625299654173 14.399305672277968 4.6631870869652285 0 0 0
305 1 29.616484830263776 15.299263756986273 3.1043729921400596 0 0 0
306 2 31.17522967719077 14.399320508880523 4.663334825819562 0 0 0
307 1 32.73404255089726 15.29926092543146 3.104438313431945 0 0 0
308 2 34.29286295079902 14.399308700140676 4.663307665106232 0 0 0
311 1 3.117386814908362 17.999155144792894 3.1048590738141177 0 0 0
312 2 7.793649838564818 17.09917847456458 4.663738707826737 0 0 0
313 1 6.234771376920944 17.9990915430479 3.10488928384205 0 0 0
314 1 9.352387553155372 17.999130069959413 3.1048080439663606 0 0 0
315 2 10.911228119311382 17.099175502106558 4.663670486283266 0 0 0
316 1 12.469944843757622 17.99910555571285 3.104681519821169 0 0 0
317 2 14.028839230524387 17.099147038605373 4.663471737177413 0 0 0
318 1 15.587498844127488 17.999107093413834 3.1044389822808873 0 0 0
319 2 17.14638423812214 17.09916534340021 4.663229852969189 0 0 0
320 2 20.26388465425492 17.099190968093147 4.6630868597385495 0 0 0
321 1 18.705060612975373 17.999140356478705 3.104232698650912 0 0 0
322 2 23.381394838426214 17.099180745651545 4.663041412434785 0 0 0
323 1 21.822619702187826 17.99914539814094 3.1041498822019378 0 0 0
324 2 26.49887350064064 17.09916816468492 4.663102205298883 0 0 0
325 1 24.94016567115698 17.999134603276342 3.1041464269027617 0 0 0
326 1 28.05771020180224 17.99913321138611 3.1042793590105857 0 0 0
327 2 29.616410968184358 17.09918553214633 4.663277459216907 0 0 0
328 1 31.17526096443644 17.999132326929757 3.104432696252899 0 0 0
329 2 32.73405418144284 17.099185911388375 4.6633405111453445 0 0 0
330 1 34.292828770910994 17.999128055461536 3.1044036891354274 0 0 0
331 1 1.5587037132637784 20.698999907864724 3.104865665285486 0 0 0
332 1 4.676033708283055 20.69903737631358 3.104879212581032 0 0 0
334 1 7.79361717659715 20.698999397408155 3.104833083358011 0 0 0
335 2 6.234866747472929 19.799059539553422 4.663741121165028 0 0 0
336 2 9.352418696000209 19.79904305561675 4.663718086062861 0 0 0
337 1 10.91116741466242 20.69898528924769 3.1047698000868644 0 0 0
338 2 12.470043457163188 19.799025250799307 4.663589631460954 0 0 0
339 1 14.028720459337736 20.69897065427501 3.104566259314099 0 0 0
340 2 15.587619109218366 19.799020536013522 4.66334472729791 0 0 0
341 1 17.14627650694589 20.69899277049835 3.1043211878834107 0 0 0
342 1 20.26384003255276 20.699017574682856 3.1041774075859245 0 0 0
343 2 18.70513316594896 19.799052224592902 4.663142370856767 0 0 0
344 1 23.381393080039313 20.699008209476695 3.1041373045874465 0 0 0
345 2 21.822637385720096 19.799059929559284 4.663054749335412 0 0 0
346 1 26.498938567021057 20.6990027533357 3.104193594257547 0 0 0
347 2 24.94013859716614 19.799040534353118 4.663052398672972 0 0 0
348 2 28.057625299656294 19.79904463843422 4.663187086966817 0 0 0
349 1 29.616484830264614 20.69900272313845 3.1043729921425847 0 0 0
350 2 31.175229677191922 19.799059475036284 4.663334825815652 0 0 0
351 1 32.734042550891495 20.69899989158357 3.104438313434812 0 0 0
352 2 34.292862950800014 19.799047666295873 4.663307665106877 0 0 0
355 1 3.1173868149079045 23.398894110947804 3.104859073815224 0 0 0
356 2 7.793649838569585 22.49891744071853 4.663738707828036 0 0 0
357 1 6.234771376915161 23.398830509210065 3.1048892838371662 0 0 0
358 1 9.352387553151003 23.398869036112067 3.104808043970984 0 0 0
359 2 10.911228119313993 22.49891446826339 4.66367048628205 0 0 0
360 1 12.469944843750596 23.398844521859466 3.1046815198189903 0 0 0
361 2 14.028839230525032 22.49888600475701 4.6634717371748025 0 0 0
362 1 15.587498844133698 23.3988460595589 3.104438982280807 0 0 0
363 2 17.14638423811974 22.49890430955763 4.663229852968158 0 0 0
364 2 20.263884654257083 22.498929934246362 4.663086859741271 0 0 0
365 1 18.70506061297072 23.398879322636137 3.1042326986440627 0 0 0
366 2 23.38139483842661 22.498919711806153 4.6630414124357 0 0 0
367 1 21.82261970218693 23.39888436430051 3.1041498822023206 0 0 0
368 2 26.49887350064086 22.498907130840415 4.663102205300191 0 0 0
369 1 24.94016567115623 23.398873569429625 3.104146426904392 0 0 0
370 1 28.057710201802113 23.398872177543193 3.10427935900864 0 0 0
371 2 29.616410968185548 22.498924498301406 4.663277459217031 0 0 0
372 1 31.175260964432194 23.39887129308299 3.104432696251168 0 0 0
373 2 32.73405418144461 22.498924877543907 4.663340511145343 0 0 0
374 1 34.29282877091106 23.398867021611633 3.104403689136375 0 0 0
375 1 1.5587037132622255 26.098738874019997 3.1048656652847613 0 0 0
376 1 4.67603370828172 26.098776342467435 3.1048792125809426 0 0 0
378 1 7.793617176597533 26.098738363569463 3.1048330833587 0 0 0
379 2 6.234866747472467 25.198798505705952 4.663741121165539 0 0 0
380 2 9.35241869600141 25.19878202177054 4.663718086062334 0 0 0
381 1 10.911167414659722 26.09872425540401 3.1047698000869017 0 0 0
382 2 12.470043457164687 25.198764216956267 4.66358963146425 0 0 0
383 1 14.028720459339599 26.09870962042705 3.104566259313529 0 0 0
384 2 15.587619109219126 25.19875950217227 4.663344727298018 0 0 0
385 1 17.146276506940595 26.09873173665286 3.1043211878846684 0 0 0
386 1 20.26384003255509 26.098756540838895 3.104177407590195 0 0 0
387 2 18.70513316595014 25.198791190747382 4.663142370858281 0 0 0
388 1 23.381393080035654 26.09874717562965 3.1041373045834613 0 0 0
389 2 21.822637385719737 25.198798895713253 4.663054749332726 0 0 0
390 1 26.498938567027835 26.098741719495987 3.104193594264488 0 0 0
391 2 24.940138597165806 25.198779500506735 4.663052398675004 0 0 0
392 2 28.057625299655978 25.19878360459037 4.663187086963107 0 0 0
393 1 29.61648483025986 26.09874168928343 3.1043729921389547 0 0 0
394 2 31.17522967719232 25.198798441192316 4.66333482581793 0 0 0
395 1 32.73404255089301 26.098738857736855 3.1044383134326017 0 0 0
396 2 34.29286295080126 25.19878663245268 4.66330766510592 0 0 0
399 1 3.117386814906107 28.79863307710012 3.10485907382325 0 0 0
400 2 7.79364983856792 27.89865640687304 4.663738707824546 0 0 0
401 1 6.234771376918827 28.79856947535879 3.104889283834525 0 0 0
402 1 9.352387553153788 28.79860800226103 3.1048080439710026 0 0 0
403 2 10.9112281193116 27.898653434417625 4.663670486282725 0 0 0
404 1 12.469944843753828 28.798583488021176 3.1046815198163453 0 0 0
405 2 14.028839230525486 27.898624970911836 4.663471737177583 0 0 0
406 1 15.587498844133897 28.798585025715546 3.1044389822826326 0 0 0
407 2 17.146384238119268 27.89864327571182 4.663229852968269 0 0 0
408 2 20.26388465425691 27.898668900400732 4.663086859739811 0 0 0
409 1 18.705060612971998 28.798618288789136 3.104232698639225 0 0 0
410 2 23.381394838426168 27.898658677962686 4.663041412436421 0 0 0
411 1 21.822619702188373 28.7986233304542 3.104149882206249 0 0 0
412 2 26.49887350064204 27.898646096991733 4.663102205299608 0 0 0
413 1 24.9401656711525 28.79861253558684 3.1041464268994936 0 0 0
414 1 28.057710201799942 28.798611143700626 3.1042793590073248 0 0 0
415 2 29.616410968187477 27.898663464459382 4.663277459220199 0 0 0
416 1 31.175260964435193 28.798610259236916 3.104432696262225 0 0 0
417 2 32.7340541814408 27.89866384369994 4.663340511145359 0 0 0
418 1 34.29282877091584 28.79860598776401 3.104403689129712 0 0 0
419 1 1.558703713262423 31.49847784017008 3.1048656653028486 0 0 0
420 1 4.676033708277308 31.498515308627795 3.1048792125739246 0 0 0
422 1 7.793617176598021 31.49847732972834 3.1048330833566262 0 0 0
423 2 6.234866747476177 30.598537471860308 4.6637411211721655 0 0 0
424 2 9.35241869600201 30.598520987926676 4.6637180860629535 0 0 0
425 1 10.911167414657038 31.498463221565938 3.104769800095505 0 0 0
426 2 12.470043457166204 30.598503183110953 4.663589631461638 0 0 0
427 1 14.028720459339251 31.49844858656647 3.104566259310832 0 0 0
428 2 15.587619109217082 30.598498468327218 4.663344727295973 0 0 0
429 1 17.14627650694345 31.498470702816633 3.1043211878909016 0 0 0
430 1 20.26384003255239 31.498495506988977 3.1041774075884434 0 0 0
431 2 18.70513316595082 30.598530156903937 4.663142370858548 0 0 0
432 1 23.381393080031692 31.49848614178882 3.1041373045850698 0 0 0
433 2 21.822637385720725 30.598537861867822 4.663054749331918 0 0 0
434 1 26.498938567032283 31.498480685654023 3.104193594264817 0 0 0
435 2 24.94013859716572 30.59851846666 4.663052398678288 0 0 0
436 2 28.05762529965314 30.59852257074359 4.663187086965646 0 0 0
437 1 29.616484830266774 31.498480655437046 3.1043729921309082 0 0 0
438 2 31.175229677189623 30.598537407345027 4.663334825817238 0 0 0
439 1 32.734042550896746 31.498477823897616 3.1044383134342413 0 0 0
440 2 34.292862950798686 30.598525598607768 4.6633076651097625 0 0 0
443 1 3.1173868149089876 34.19837204325543 3.104859073836489 0 0 0
444 2 7.79364983856967 33.29839537302765 4.663738707824098 0 0 0
445 1 6.2347713769169495 34.19830844151444 3.1048892838335695 0 0 0
446 1 9.35238755315229 34.19834696840923 3.104808043969454 0 0 0
447 2 10.911228119308769 33.29839240056843 4.663670486282049 0 0 0
448 1 12.4699448437619 34.1983224541795 3.104681519810225 0 0 0
449 2 14.028839230524177 33.29836393706992 4.6634717371837615 0 0 0
450 1 15.587498844128637 34.19832399188962 3.1044389822825593 0 0 0
451 2 17.146384238121325 33.29838224185891 4.663229852969768 0 0 0
452 2 20.263884654257044 33.298407866556595 4.663086859744417 0 0 0
453 1 18.70506061297251 34.198357254949194 3.1042326986352666 0 0 0
454 2 23.38139483842678 33.29839764411591 4.6630414124332695 0 0 0
455 1 21.822619702190245 34.19836229660501 3.104149882202125 0 0 0
456 2 26.498873500643143 33.298385063143954 4.663102205299162 0 0 0
457 1 24.940165671147632 34.19835150175266 3.104146426905297 0 0 0
458 1 28.057710201803065 34.198350109854246 3.104279359012268 0 0 0
459 2 29.616410968186383 33.2984024306178 4.663277459219181 0 0 0
460 1 31.175260964432685 34.198349225385776 3.1044326962598245 0 0 0
461 2 32.73405418144392 33.29840280985356 4.663340511141025 0 0 0
462 1 34.292828770899945 34.1983449539326 3.1044036891339184 0 0 0
463 1 1.5587037132590085 36.89821680632277 3.104865665294944 0 0 0