LAMMPS data file via write_data, version 2 Aug 2023, timestep = 1195, units = metal

37776 atoms
3 atom types

0 1247.0153049740657 xlo xhi
0 86.39578901160804 ylo yhi
0 50 zlo zhi
0 0 0 xy xz yz

Masses

1 95.94
2 32.065
3 32.065

Atoms # atomic

1 3 1.5587683034968316 0.8999560795234671 1.545439762476883 0 0 0
2 3 4.676306565931632 0.8999560795240613 1.5454397624776093 0 0 0
3 3 7.793844828366231 0.8999560795234155 1.5454397624775429 0 0 0
4 3 10.911383090800758 0.899956079523968 1.5454397624774785 0 0 0
5 3 14.028921353235518 0.8999560795240586 1.5454397624774805 0 0 0
6 3 17.146459615670896 0.8999560795239615 1.5454397624776723 0 0 0
7 3 20.263997878106608 0.899956079523784 1.5454397624776641 0 0 0
8 3 23.381536140541517 0.8999560795237664 1.5454397624775373 0 0 0
9 3 26.499074402976294 0.8999560795237724 1.545439762477609 0 0 0
10 3 29.616612665411527 0.8999560795238449 1.5454397624776302 0 0 0
11 3 32.73415092784703 0.8999560795237999 1.54543976247758 0 0 0
12 3 3.117537434712604 3.5998244861365336 1.5454397624774159 0 0 0
13 3 6.235075697147447 3.5998244861365993 1.5454397624778493 0 0 0
14 3 9.352613959583156 3.5998244861366944 1.5454397624773584 0 0 0
15 3 12.470152222018935 3.5998244861365802 1.5454397624776455 0 0 0
16 3 15.587690484453752 3.5998244861366593 1.5454397624775795 0 0 0
17 3 18.705228746888555 3.599824486136582 1.5454397624776735 0 0 0
18 3 21.822767009323858 3.599824486136511 1.5454397624776088 0 0 0
19 3 24.940305271758834 3.599824486136541 1.545439762477627 0 0 0
20 3 28.057843534193964 3.599824486136607 1.5454397624776695 0 0 0
21 3 31.175381796629374 3.5998244861365754 1.5454397624776308 0 0 0
22 3 34.29292005906477 3.599824486136506 1.545439762477646 0 0 0
23 3 1.5587683034957978 6.29969289274948 1.545439762477716 0 0 0
24 3 4.676306565931154 6.299692892749671 1.5454397624782674 0 0 0
25 3 7.793844828366747 6.299692892749053 1.5454397624773542 0 0 0
26 3 10.91138309080075 6.2996928927494045 1.5454397624774074 0 0 0
27 3 14.028921353235374 6.29969289274948 1.5454397624777476 0 0 0
28 3 17.14645961567088 6.2996928927494675 1.5454397624777314 0 0 0
29 3 20.26399787810658 6.299692892749346 1.5454397624776373 0 0 0
30 3 23.38153614054146 6.2996928927493 1.5454397624776237 0 0 0
31 3 26.499074402976326 6.2996928927493565 1.5454397624776688 0 0 0
32 3 29.61661266541161 6.2996928927493645 1.5454397624776706 0 0 0
33 3 32.734150927847104 6.299692892749327 1.545439762477714 0 0 0
34 3 3.1175374347130393 8.999561299361734 1.5454397624776834 0 0 0
35 3 6.235075697147487 8.999561299362238 1.5454397624775256 0 0 0
36 3 9.35261395958275 8.999561299362187 1.545439762477362 0 0 0
37 3 12.470152222018877 8.999561299361996 1.5454397624778184 0 0 0
38 3 15.587690484453782 8.999561299362037 1.5454397624776235 0 0 0
39 3 18.70522874688862 8.999561299362059 1.5454397624776257 0 0 0
40 3 21.8227670093239 8.999561299362027 1.545439762477641 0 0 0
41 3 24.940305271758856 8.999561299361995 1.5454397624776146 0 0 0
42 3 28.05784353419397 8.999561299362002 1.5454397624776606 0 0 0
43 3 31.175381796629274 8.999561299362059 1.545439762477612 0 0 0
44 3 34.29292005906469 8.999561299362094 1.545439762477663 0 0 0
45 3 1.5587683034976234 11.699429705974659 1.5454397624777119 0 0 0
46 3 4.676306565932155 11.699429705975309 1.5454397624774392 0 0 0
47 3 7.793844828366961 11.699429705974692 1.5454397624775207 0 0 0
48 3 10.911383090800639 11.699429705974955 1.5454397624775575 0 0 0
49 3 14.028921353235164 11.699429705974763 1.5454397624776728 0 0 0
50 3 17.146459615670846 11.699429705974795 1.5454397624777068 0 0 0
51 3 20.263997878106597 11.699429705974733 1.5454397624776335 0 0 0
52 3 23.3815361405415 11.69942970597477 1.545439762477607 0 0 0
53 3 26.499074402976337 11.699429705974767 1.545439762477601 0 0 0
54 3 29.616612665411626 11.699429705974811 1.5454397624776588 0 0 0
55 3 32.734150927847054 11.69942970597483 1.5454397624776728 0 0 0
56 3 3.117537434712813 14.399298112587564 1.5454397624778655 0 0 0
57 3 6.23507569714781 14.399298112587866 1.5454397624776235 0 0 0
58 3 9.352613959582895 14.399298112588097 1.5454397624775242 0 0 0
59 3 12.470152222018498 14.399298112587644 1.5454397624777865 0 0 0
60 3 15.58769048445379 14.399298112587466 1.5454397624775924 0 0 0
61 3 18.70522874688879 14.399298112587473 1.5454397624775966 0 0 0
62 3 21.822767009323957 14.399298112587488 1.5454397624775968 0 0 0
63 3 24.940305271758834 14.399298112587543 1.5454397624776244 0 0 0
64 3 28.057843534193953 14.399298112587646 1.5454397624776126 0 0 0
65 3 31.1753817966294 14.399298112587537 1.5454397624776492 0 0 0
66 3 34.29292005906477 14.399298112587555 1.5454397624775862 0 0 0
67 3 1.55876830349607 17.099166519200107 1.5454397624775598 0 0 0
68 3 4.67630656593151 17.099166519200935 1.5454397624778782 0 0 0
69 3 7.7938448283668365 17.09916651920021 1.5454397624775842 0 0 0
70 3 10.911383090800305 17.099166519200402 1.5454397624774932 0 0 0
71 3 14.028921353234963 17.09916651920052 1.5454397624776794 0 0 0
72 3 17.146459615670963 17.099166519200416 1.5454397624777354 0 0 0
73 3 20.26399787810669 17.099166519200196 1.5454397624776364 0 0 0
74 3 23.3815361405415 17.099166519200253 1.5454397624776022 0 0 0
75 3 26.499074402976355 17.099166519200306 1.5454397624776086 0 0 0
76 3 29.61661266541162 17.099166519200367 1.5454397624776834 0 0 0
77 3 32.73415092784705 17.09916651920034 1.5454397624776433 0 0 0
78 3 3.1175374347137477 19.79903492581235 1.5454397624769995 0 0 0
79 3 6.235075697148088 19.799034925813196 1.5454397624776586 0 0 0
80 3 9.35261395958282 19.799034925813356 1.5454397624774547 0 0 0
81 3 12.47015222201848 19.799034925813075 1.5454397624777507 0 0 0
82 3 15.587690484453525 19.79903492581323 1.5454397624775307 0 0 0
83 3 18.705228746888704 19.799034925813142 1.5454397624776344 0 0 0
84 3 21.822767009323957 19.799034925812986 1.5454397624776373 0 0 0
85 3 24.940305271758856 19.799034925812965 1.5454397624776062 0 0 0
86 3 28.05784353419402 19.799034925813135 1.5454397624776806 0 0 0
87 3 31.17538179662939 19.799034925813086 1.5454397624776521 0 0 0
88 3 34.29292005906472 19.799034925813032 1.5454397624776057 0 0 0
89 3 1.5587683034961721 22.498903332425282 1.5454397624770757 0 0 0
90 3 4.676306565931592 22.498903332426064 1.545439762477802 0 0 0
91 3 7.7938448283662805 22.49890333242526 1.5454397624775025 0 0 0
92 3 10.911383090800214 22.498903332425915 1.5454397624775371 0 0 0
93 3 14.028921353235022 22.498903332425982 1.5454397624776632 0 0 0
94 3 17.14645961567088 22.498903332425954 1.5454397624777687 0 0 0
95 3 20.26399787810662 22.498903332425837 1.5454397624776353 0 0 0
96 3 23.381536140541538 22.498903332425694 1.5454397624775904 0 0 0
97 3 26.499074402976312 22.498903332425805 1.5454397624776461 0 0 0
98 3 29.616612665411587 22.498903332425915 1.5454397624776832 0 0 0
99 3 32.734150927847104 22.498903332425776 1.5454397624776814 0 0 0
100 3 3.117537434713785 25.198771739038087 1.545439762477008 0 0 0
101 3 6.235075697148192 25.198771739038225 1.545439762478164 0 0 0
102 3 9.352613959583357 25.198771739038524 1.5454397624774052 0 0 0
103 3 12.470152222018283 25.19877173903854 1.5454397624776128 0 0 0
104 3 15.587690484453452 25.19877173903876 1.5454397624776228 0 0 0
105 3 18.705228746888704 25.198771739038623 1.5454397624776743 0 0 0
106 3 21.822767009323957 25.198771739038584 1.5454397624776153 0 0 0
107 3 24.940305271758767 25.198771739038584 1.5454397624776068 0 0 0
108 3 28.057843534193943 25.198771739038584 1.5454397624776541 0 0 0
109 3 31.175381796629335 25.198771739038623 1.545439762477616 0 0 0
110 3 34.29292005906474 25.19877173903857 1.5454397624776222 0 0 0
111 3 1.558768303496549 27.898640145650884 1.5454397624767262 0 0 0
112 3 4.676306565931186 27.8986401456517 1.545439762477881 0 0 0
113 3 7.793844828366237 27.898640145650692 1.545439762477542 0 0 0
114 3 10.911383090800475 27.89864014565099 1.5454397624775413 0 0 0
115 3 14.028921353235203 27.898640145651424 1.5454397624776701 0 0 0
116 3 17.146459615670896 27.89864014565146 1.545439762477722 0 0 0
117 3 20.263997878106597 27.898640145651246 1.5454397624776308 0 0 0
118 3 23.3815361405414 27.898640145651296 1.5454397624775458 0 0 0
119 3 26.499074402976312 27.898640145651296 1.5454397624776344 0 0 0
120 3 29.616612665411548 27.898640145651317 1.54543976247763 0 0 0
121 3 32.734150927847054 27.898640145651363 1.5454397624776737 0 0 0
122 3 3.1175374347136486 30.598508552264178 1.545439762477105 0 0 0
123 3 6.235075697147929 30.59850855226388 1.5454397624779967 0 0 0
124 3 9.352613959583364 30.598508552263873 1.5454397624774625 0 0 0
125 3 12.470152222018717 30.59850855226388 1.5454397624777827 0 0 0
126 3 15.587690484453562 30.59850855226425 1.5454397624775777 0 0 0
127 3 18.70522874688862 30.5985085522641 1.545439762477708 0 0 0
128 3 21.822767009323865 30.598508552264036 1.5454397624776925 0 0 0
129 3 24.940305271758834 30.598508552264086 1.5454397624776233 0 0 0
130 3 28.057843534193953 30.598508552264196 1.5454397624776797 0 0 0
131 3 31.175381796629328 30.598508552264153 1.5454397624777318 0 0 0
132 3 34.29292005906472 30.59850855226416 1.5454397624776546 0 0 0
133 3 1.558768303496647 33.29837695887663 1.5454397624781748 0 0 0
134 3 4.676306565931298 33.29837695887702 1.5454397624780774 0 0 0
135 3 7.793844828366564 33.29837695887652 1.5454397624774296 0 0 0
136 3 10.91138309080074 33.2983769588769 1.5454397624776635 0 0 0
137 3 14.028921353235262 33.29837695887686 1.5454397624776786 0 0 0
138 3 17.14645961567079 33.298376958876936 1.5454397624776743 0 0 0
139 3 20.26399787810648 33.298376958876844 1.5454397624776646 0 0 0
140 3 23.381536140541417 33.29837695887686 1.5454397624776663 0 0 0
141 3 26.499074402976273 33.29837695887695 1.5454397624776617 0 0 0
142 3 29.61661266541154 33.29837695887689 1.5454397624776535 0 0 0
143 3 32.73415092784711 33.29837695887679 1.5454397624776728 0 0 0
144 3 3.1175374347133613 35.9982453654887 1.5454397624771368 0 0 0
145 3 6.2350756971481625 35.998245365489645 1.5454397624777862 0 0 0
146 3 9.352613959583332 35.998245365489986 1.5454397624772813 0 0 0
147 3 12.470152222018418 35.99824536548974 1.545439762477815 0 0 0
148 3 15.58769048445362 35.99824536548963 1.5454397624775682 0 0 0
149 3 18.705228746888682 35.99824536548959 1.5454397624775766 0 0 0
150 3 21.82276700932391 35.99824536548959 1.5454397624776237 0 0 0
151 3 24.940305271758817 35.99824536548969 1.5454397624776617 0 0 0
152 3 28.057843534194042 35.99824536548978 1.5454397624776322 0 0 0
153 3 31.17538179662934 35.998245365489645 1.5454397624776413 0 0 0
154 3 34.29292005906474 35.99824536548969 1.5454397624776415 0 0 0
155 3 1.558768303496734 38.69811377210288 1.5454397624774603 0 0 0
156 3 4.676306565931625 38.69811377210271 1.5454397624778748 0 0 0
157 3 7.793844828366802 38.6981137721019 1.5454397624774083 0 0 0
158 3 10.911383090800829 38.6981137721022 1.545439762477499 0 0 0
159 3 14.028921353235225 38.69811377210243 1.5454397624776202 0 0 0
160 3 17.14645961567081 38.69811377210234 1.545439762477747 0 0 0
161 3 20.26399787810653 38.69811377210228 1.5454397624776313 0 0 0
162 3 23.381536140541506 38.69811377210243 1.5454397624775544 0 0 0
163 3 26.499074402976355 38.69811377210246 1.5454397624775724 0 0 0
164 3 29.616612665411598 38.698113772102445 1.5454397624776313 0 0 0
165 3 32.734150927847125 38.6981137721024 1.545439762477722 0 0 0
166 3 3.1175374347124754 41.39798217871548 1.5454397624776666 0 0 0
167 3 6.235075697148246 41.39798217871516 1.5454397624778184 0 0 0
168 3 9.35261395958353 41.39798217871516 1.5454397624773735 0 0 0
169 3 12.470152222018829 41.397982178714955 1.545439762477626 0 0 0
170 3 15.587690484453445 41.39798217871508 1.545439762477574 0 0 0
171 3 18.705228746888658 41.39798217871507 1.5454397624776093 0 0 0
172 3 21.822767009323986 41.3979821787151 1.545439762477597 0 0 0
173 3 24.940305271758817 41.39798217871522 1.5454397624776166 0 0 0
174 3 28.057843534193943 41.39798217871516 1.545439762477607 0 0 0
175 3 31.1753817966294 41.39798217871516 1.5454397624776648 0 0 0
176 3 34.29292005906479 41.397982178715054 1.5454397624775786 0 0 0
177 2 1.5587683034955235 0.8999560795242114 4.66325357085526 0 0 0
178 2 4.67630656593139 0.8999560795241738 4.663253570855788 0 0 0
179 1 3.1175374347134914 1.7999124658751322 3.104346666666518 0 0 0
180 2 7.793844828366415 0.8999560795234026 4.663253570855886 0 0 0
181 1 6.235075697148928 1.7999124658750736 3.1043466666667188 0 0 0
182 1 9.35261395958344 1.7999124658754355 3.104346666666612 0 0 0
183 2 10.91138309080085 0.899956079524042 4.66325357085578 0 0 0
184 1 12.470152222018218 1.7999124658752936 3.104346666666609 0 0 0
185 2 14.02892135323544 0.8999560795239853 4.663253570855779 0 0 0
186 1 15.587690484453207 1.7999124658753047 3.104346666666654 0 0 0
187 2 17.14645961567084 0.8999560795239104 4.663253570855691 0 0 0
188 2 20.263997878106654 0.8999560795238029 4.663253570855733 0 0 0
189 1 18.705228746888807 1.7999124658751524 3.104346666666699 0 0 0
190 2 23.381536140541478 0.8999560795238017 4.663253570855819 0 0 0
191 1 21.822767009324064 1.7999124658751515 3.1043466666666744 0 0 0
192 2 26.499074402976273 0.8999560795237966 4.663253570855723 0 0 0
193 1 24.940305271758934 1.7999124658751764 3.104346666666659 0 0 0
194 1 28.057843534193925 1.7999124658752115 3.104346666666659 0 0 0
195 2 29.61661266541154 0.8999560795239027 4.663253570855734 0 0 0
196 1 31.1753817966294 1.799912465875084 3.104346666666653 0 0 0
197 2 32.73415092784705 0.8999560795237775 4.663253570855686 0 0 0
198 1 34.29292005906482 1.7999124658751047 3.1043466666666886 0 0 0
199 1 1.558768303496376 4.499780872487908 3.1043466666666855 0 0 0
200 1 4.676306565930018 4.4997808724879205 3.1043466666667983 0 0 0
201 2 3.1175374347121623 3.599824486136457 4.663253570855932 0 0 0
202 1 7.793844828365689 4.499780872487888 3.1043466666666197 0 0 0
203 2 6.235075697147756 3.5998244861365403 4.663253570855654 0 0 0
204 2 9.352613959583264 3.599824486136793 4.663253570855863 0 0 0
205 1 10.911383090800902 4.499780872488017 3.1043466666665998 0 0 0
206 2 12.470152222018868 3.5998244861365487 4.66325357085559 0 0 0
207 1 14.028921353236273 4.499780872488057 3.104346666666706 0 0 0
208 2 15.587690484453733 3.5998244861366193 4.663253570855816 0 0 0
209 1 17.146459615671144 4.499780872488085 3.1043466666667174 0 0 0
210 1 20.263997878106363 4.499780872487913 3.1043466666666664 0 0 0
211 2 18.705228746888633 3.599824486136663 4.663253570855714 0 0 0
212 1 23.381536140541318 4.499780872487987 3.10434666666668 0 0 0
213 2 21.82276700932388 3.599824486136524 4.663253570855724 0 0 0
214 1 26.499074402976376 4.499780872487915 3.104346666666697 0 0 0
215 2 24.940305271758856 3.5998244861364896 4.663253570855739 0 0 0
216 2 28.057843534193992 3.599824486136567 4.6632535708557095 0 0 0
217 1 29.61661266541161 4.499780872487926 3.104346666666706 0 0 0
218 2 31.17538179662939 3.599824486136618 4.663253570855784 0 0 0
219 1 32.73415092784701 4.499780872487904 3.1043466666666855 0 0 0
220 2 34.29292005906474 3.599824486136541 4.663253570855744 0 0 0
221 2 1.5587683034957234 6.299692892748709 4.663253570856276 0 0 0
222 2 4.676306565931388 6.299692892749724 4.663253570855424 0 0 0
223 1 3.117537434713168 7.199649279100671 3.1043466666669044 0 0 0
224 2 7.793844828366933 6.299692892749195 4.663253570855759 0 0 0
225 1 6.235075697149289 7.199649279100867 3.1043466666666646 0 0 0
226 1 9.352613959583639 7.199649279100987 3.1043466666664887 0 0 0
227 2 10.911383090800543 6.29969289274944 4.663253570855761 0 0 0
228 1 12.470152222018 7.199649279100662 3.104346666666708 0 0 0
229 2 14.028921353235324 6.299692892749456 4.6632535708557485 0 0 0
230 1 15.587690484453157 7.199649279100783 3.1043466666667636 0 0 0
231 2 17.146459615671017 6.299692892749479 4.663253570855698 0 0 0
232 2 20.26399787810659 6.29969289274932 4.6632535708556855 0 0 0
233 1 18.705228746888793 7.199649279100671 3.1043466666666575 0 0 0
234 2 23.38153614054144 6.299692892749269 4.663253570855742 0 0 0
235 1 21.822767009324085 7.199649279100699 3.104346666666667 0 0 0
236 2 26.499074402976333 6.299692892749392 4.663253570855722 0 0 0
237 1 24.940305271758856 7.199649279100758 3.104346666666698 0 0 0
238 1 28.05784353419397 7.199649279100627 3.104346666666678 0 0 0
239 2 29.616612665411587 6.299692892749392 4.663253570855692 0 0 0
240 1 31.17538179662939 7.199649279100695 3.1043466666666664 0 0 0
241 2 32.734150927847054 6.299692892749435 4.663253570855649 0 0 0
242 1 34.29292005906479 7.1996492791006785 3.1043466666666775 0 0 0
243 1 1.558768303495835 9.89951768571319 3.104346666666872 0 0 0
244 1 4.676306565930562 9.899517685713937 3.10434666666663 0 0 0
245 2 3.117537434713225 8.999561299362037 4.663253570855619 0 0 0
246 1 7.793844828365452 9.899517685713398 3.104346666666579 0 0 0
247 2 6.235075697147785 8.999561299362243 4.663253570855743 0 0 0
248 2 9.352613959582756 8.999561299362075 4.663253570855779 0 0 0
249 1 10.91138309080066 9.899517685713441 3.1043466666666664 0 0 0
250 2 12.470152222018777 8.999561299362007 4.663253570855641 0 0 0
251 1 14.028921353236337 9.899517685713459 3.104346666666749 0 0 0
252 2 15.587690484453834 8.999561299362103 4.6632535708558525 0 0 0
253 1 17.146459615671205 9.899517685713402 3.104346666666687 0 0 0
254 1 20.263997878106355 9.899517685713311 3.104346666666658 0 0 0
255 2 18.705228746888668 8.999561299362055 4.663253570855683 0 0 0
256 1 23.381536140541378 9.899517685713409 3.1043466666666686 0 0 0
257 2 21.822767009323858 8.999561299362016 4.663253570855688 0 0 0
258 1 26.499074402976316 9.89951768571339 3.104346666666669 0 0 0
259 2 24.940305271758795 8.999561299362064 4.6632535708557485 0 0 0
260 2 28.057843534193964 8.99956129936203 4.663253570855707 0 0 0
261 1 29.6166126654116 9.899517685713345 3.1043466666666726 0 0 0
262 2 31.175381796629328 8.999561299362043 4.663253570855741 0 0 0
263 1 32.73415092784709 9.899517685713406 3.1043466666666903 0 0 0
264 2 34.29292005906467 8.999561299362034 4.6632535708556935 0 0 0
265 2 1.558768303497744 11.699429705974932 4.663253570855665 0 0 0
266 2 4.676306565931925 11.699429705975371 4.663253570855757 0 0 0
267 1 3.117537434714673 12.599386092326279 3.104346666666684 0 0 0
268 2 7.793844828366876 11.699429705974596 4.663253570855823 0 0 0
269 1 6.235075697149395 12.599386092326327 3.1043466666666757 0 0 0
270 1 9.352613959583685 12.59938609232682 3.1043466666667268 0 0 0
271 2 10.911383090800639 11.699429705974884 4.663253570855858 0 0 0
272 1 12.47015222201788 12.59938609232619 3.104346666666701 0 0 0
273 2 14.028921353235122 11.699429705974863 4.663253570855748 0 0 0
274 1 15.587690484453008 12.599386092326075 3.104346666666694 0 0 0
275 2 17.14645961567086 11.699429705974795 4.6632535708556775 0 0 0
276 2 20.26399787810658 11.69942970597474 4.663253570855705 0 0 0
277 1 18.705228746888793 12.599386092326005 3.1043466666666664 0 0 0
278 2 23.381536140541478 11.699429705974747 4.66325357085577 0 0 0
279 1 21.822767009324004 12.599386092326142 3.1043466666666686 0 0 0
280 2 26.499074402976333 11.699429705974733 4.663253570855748 0 0 0
281 1 24.940305271758834 12.59938609232619 3.104346666666691 0 0 0
282 1 28.057843534193953 12.599386092326142 3.1043466666666664 0 0 0
283 2 29.616612665411626 11.699429705974811 4.663253570855671 0 0 0
284 1 31.1753817966294 12.599386092326094 3.104346666666676 0 0 0
285 2 32.734150927847054 11.69942970597487 4.663253570855709 0 0 0
286 1 34.29292005906474 12.599386092326204 3.104346666666684 0 0 0
287 1 1.5587683034970705 15.299254498939433 3.104346666667058 0 0 0
288 1 4.676306565930601 15.299254498939455 3.1043466666667174 0 0 0
289 2 3.117537434713384 14.399298112587283 4.663253570855944 0 0 0
290 1 7.793844828365665 15.29925449893913 3.1043466666667636 0 0 0
291 2 6.23507569714789 14.39929811258774 4.663253570855674 0 0 0
292 2 9.352613959583028 14.399298112588097 4.663253570856054 0 0 0
293 1 10.911383090800623 15.299254498939211 3.104346666666747 0 0 0
294 2 12.470152222018609 14.399298112587596 4.66325357085558 0 0 0
295 1 14.02892135323609 15.299254498938982 3.1043466666666477 0 0 0
296 2 15.58769048445374 14.399298112587514 4.663253570855784 0 0 0
297 1 17.146459615671233 15.299254498938872 3.1043466666666863 0 0 0
298 1 20.26399787810638 15.299254498938842 3.1043466666666655 0 0 0
299 2 18.70522874688878 14.399298112587461 4.663253570855742 0 0 0
300 1 23.381536140541357 15.299254498938938 3.104346666666672 0 0 0
301 2 21.822767009323886 14.399298112587473 4.663253570855712 0 0 0
302 1 26.499074402976333 15.299254498938971 3.1043466666666655 0 0 0
303 2 24.94030527175884 14.399298112587537 4.663253570855736 0 0 0
304 2 28.057843534193943 14.399298112587578 4.66325357085571 0 0 0
305 1 29.61661266541168 15.299254498938941 3.104346666666675 0 0 0
306 2 31.175381796629367 14.399298112587555 4.663253570855696 0 0 0
307 1 32.73415092784698 15.299254498938915 3.1043466666666744 0 0 0
308 2 34.29292005906477 14.399298112587562 4.6632535708557725 0 0 0
309 2 1.5587683034964699 17.099166519200516 4.663253570856626 0 0 0
310 2 4.676306565931018 17.099166519201212 4.663253570855112 0 0 0
311 1 3.1175374347130353 17.999122905551687 3.1043466666665744 0 0 0
312 2 7.7938448283667645 17.099166519200285 4.663253570856003 0 0 0
313 1 6.2350756971492345 17.999122905551914 3.104346666666656 0 0 0
314 1 9.35261395958351 17.99912290555218 3.1043466666667427 0 0 0
315 2 10.911383090800355 17.09916651920047 4.663253570855977 0 0 0
316 1 12.470152222017527 17.999122905551655 3.104346666666685 0 0 0
317 2 14.02892135323494 17.099166519200534 4.6632535708556215 0 0 0
318 1 15.587690484452937 17.999122905551804 3.1043466666666717 0 0 0
319 2 17.146459615670942 17.09916651920047 4.663253570855614 0 0 0
320 2 20.263997878106707 17.099166519200196 4.663253570855743 0 0 0
321 1 18.70522874688893 17.999122905551648 3.104346666666684 0 0 0
322 2 23.381536140541478 17.099166519200285 4.663253570855756 0 0 0
323 1 21.82276700932415 17.999122905551722 3.1043466666666775 0 0 0
324 2 26.499074402976316 17.099166519200285 4.663253570855732 0 0 0
325 1 24.940305271758834 17.999122905551708 3.1043466666666713 0 0 0
326 1 28.057843534193943 17.999122905551708 3.104346666666683 0 0 0
327 2 29.61661266541166 17.099166519200416 4.663253570855673 0 0 0
328 1 31.175381796629367 17.999122905551687 3.1043466666666664 0 0 0
329 2 32.734150927847026 17.09916651920034 4.663253570855687 0 0 0
330 1 34.29292005906482 17.99912290555173 3.1043466666666775 0 0 0
331 1 1.5587683034966449 20.698991312164054 3.1043466666665593 0 0 0
332 1 4.676306565930471 20.69899131216442 3.1043466666664594 0 0 0
333 2 3.1175374347134572 19.799034925812506 4.66325357085559 0 0 0
334 1 7.793844828365572 20.698991312164388 3.104346666666741 0 0 0
335 2 6.235075697147814 19.799034925813196 4.6632535708556215 0 0 0
336 2 9.352613959582907 19.79903492581338 4.663253570856022 0 0 0
337 1 10.911383090800562 20.698991312164598 3.1043466666666797 0 0 0
338 2 12.470152222018449 19.799034925813068 4.6632535708556 0 0 0
339 1 14.028921353235987 20.698991312164605 3.104346666666685 0 0 0
340 2 15.587690484453502 19.79903492581324 4.663253570855825 0 0 0
341 1 17.146459615671066 20.698991312164477 3.104346666666663 0 0 0
342 1 20.26399787810639 20.6989913121644 3.104346666666679 0 0 0
343 2 18.70522874688865 19.799034925813086 4.663253570855723 0 0 0
344 1 23.381536140541357 20.698991312164463 3.104346666666692 0 0 0
345 2 21.822767009323965 19.799034925813032 4.663253570855725 0 0 0
346 1 26.49907440297631 20.698991312164477 3.104346666666692 0 0 0
347 2 24.940305271758806 19.799034925813025 4.663253570855765 0 0 0
348 2 28.057843534193943 19.799034925813142 4.663253570855723 0 0 0
349 1 29.616612665411626 20.69899131216438 3.104346666666681 0 0 0
350 2 31.1753817966293 19.799034925813082 4.663253570855734 0 0 0
351 1 32.73415092784703 20.698991312164456 3.104346666666678 0 0 0
352 2 34.29292005906474 19.799034925813093 4.663253570855694 0 0 0
353 2 1.5587683034963418 22.498903332424817 4.66325357085618 0 0 0
354 2 4.676306565931337 22.498903332426007 4.663253570855348 0 0 0
355 1 3.117537434713302 23.39885971877688 3.1043466666666846 0 0 0
356 2 7.793844828366405 22.498903332425296 4.66325357085604 0 0 0
357 1 6.235075697149127 23.39885971877682 3.1043466666667308 0 0 0
358 1 9.35261395958314 23.39885971877744 3.104346666666681 0 0 0
359 2 10.911383090800234 22.498903332425982 4.663253570855748 0 0 0
360 1 12.470152222017562 23.398859718777256 3.1043466666666317 0 0 0
361 2 14.028921353234963 22.498903332425982 4.6632535708556855 0 0 0
362 1 15.587690484452976 23.3988597187773 3.1043466666666846 0 0 0
363 2 17.146459615670917 22.498903332425932 4.66325357085564 0 0 0
364 2 20.263997878106608 22.498903332425694 4.663253570855716 0 0 0
365 1 18.70522874688882 23.39885971877716 3.1043466666666877 0 0 0
366 2 23.381536140541478 22.498903332425776 4.663253570855735 0 0 0
367 1 21.822767009324085 23.398859718777235 3.104346666666662 0 0 0
368 2 26.499074402976213 22.498903332425805 4.66325357085572 0 0 0
369 1 24.940305271758856 23.398859718777256 3.1043466666666477 0 0 0
370 1 28.05784353419398 23.39885971877719 3.104346666666693 0 0 0
371 2 29.61661266541161 22.498903332425837 4.663253570855667 0 0 0
372 1 31.17538179662939 23.398859718777064 3.1043466666666664 0 0 0
373 2 32.73415092784708 22.49890333242582 4.663253570855663 0 0 0
374 1 34.2929200590648 23.398859718777153 3.104346666666676 0 0 0
375 1 1.5587683034966657 26.098728125389865 3.1043466666665367 0 0 0
376 1 4.67630656593001 26.098728125389897 3.1043466666665913 0 0 0
377 2 3.117537434713144 25.198771739038204 4.663253570856183 0 0 0
378 1 7.793844828365963 26.09872812538963 3.104346666666793 0 0 0
379 2 6.235075697147938 25.19877173903831 4.663253570855386 0 0 0
380 2 9.352613959583525 25.198771739038538 4.663253570855972 0 0 0
381 1 10.911383090800685 26.09872812538985 3.1043466666666126 0 0 0
382 2 12.470152222018234 25.198771739038598 4.663253570855622 0 0 0
383 1 14.028921353235718 26.09872812539003 3.1043466666666384 0 0 0
384 2 15.587690484453393 25.198771739038733 4.663253570855714 0 0 0
385 1 17.146459615671137 26.09872812539003 3.1043466666666792 0 0 0
386 1 20.26399787810629 26.09872812539 3.1043466666666633 0 0 0
387 2 18.705228746888718 25.198771739038623 4.663253570855697 0 0 0
388 1 23.381536140541378 26.09872812539 3.104346666666676 0 0 0
389 2 21.82276700932391 25.198771739038584 4.663253570855718 0 0 0
390 1 26.499074402976373 26.098728125389904 3.1043466666666726 0 0 0
391 2 24.940305271758817 25.198771739038555 4.663253570855724 0 0 0
392 2 28.057843534193943 25.198771739038598 4.66325357085569 0 0 0
393 1 29.616612665411626 26.098728125389904 3.104346666666673 0 0 0
394 2 31.17538179662939 25.19877173903865 4.663253570855724 0 0 0
395 1 32.73415092784707 26.098728125389837 3.1043466666666664 0 0 0
396 2 34.29292005906482 25.19877173903857 4.663253570855757 0 0 0
397 2 1.5587683034956532 27.898640145650774 4.6632535708560185 0 0 0
398 2 4.676306565930611 27.8986401456517 4.663253570855134 0 0 0
399 1 3.1175374347132623 28.798596532002968 3.104346666666522 0 0 0
400 2 7.793844828366384 27.89864014565074 4.663253570855859 0 0 0
401 1 6.2350756971491075 28.79859653200234 3.104346666666669 0 0 0
402 1 9.35261395958334 28.798596532002517 3.104346666666615 0 0 0
403 2 10.911383090800483 27.898640145650994 4.663253570855703 0 0 0
404 1 12.470152222017765 28.798596532002406 3.1043466666666344 0 0 0
405 2 14.028921353235214 27.898640145651424 4.6632535708556455 0 0 0
406 1 15.587690484453026 28.798596532002833 3.1043466666666637 0 0 0
407 2 17.146459615670828 27.89864014565151 4.6632535708555976 0 0 0
408 2 20.263997878106597 27.898640145651296 4.663253570855722 0 0 0
409 1 18.705228746888817 28.798596532002627 3.1043466666666695 0 0 0
410 2 23.381536140541456 27.89864014565128 4.663253570855809 0 0 0
411 1 21.822767009324018 28.79859653200271 3.10434666666669 0 0 0
412 2 26.499074402976333 27.898640145651296 4.663253570855787 0 0 0
413 1 24.940305271758866 28.798596532002765 3.1043466666666664 0 0 0
414 1 28.057843534193996 28.798596532002723 3.104346666666694 0 0 0
415 2 29.61661266541161 27.898640145651296 4.663253570855717 0 0 0
416 1 31.175381796629377 28.798596532002684 3.104346666666669 0 0 0
417 2 32.734150927847104 27.89864014565128 4.6632535708556695 0 0 0
418 1 34.29292005906482 28.798596532002694 3.1043466666666966 0 0 0
419 1 1.5587683034967295 31.49846493861516 3.1043466666668014 0 0 0
420 1 4.6763065659300205 31.498464938615435 3.104346666666704 0 0 0
421 2 3.117537434713461 30.59850855226377 4.663253570856027 0 0 0
422 1 7.79384482836584 31.49846493861512 3.10434666666658 0 0 0
423 2 6.235075697148179 30.59850855226394 4.663253570855383 0 0 0
424 2 9.352613959583307 30.59850855226388 4.6632535708557405 0 0 0
425 1 10.91138309080087 31.49846493861523 3.1043466666666415 0 0 0
426 2 12.47015222201869 30.598508552263755 4.663253570855635 0 0 0
427 1 14.02892135323601 31.498464938615353 3.1043466666667014 0 0 0
428 2 15.587690484453576 30.59850855226423 4.663253570855758 0 0 0
429 1 17.146459615670967 31.498464938615435 3.104346666666659 0 0 0
430 1 20.26399787810632 31.49846493861541 3.1043466666666952 0 0 0
431 2 18.70522874688854 30.598508552264132 4.66325357085564 0 0 0
432 1 23.381536140541318 31.498464938615506 3.104346666666685 0 0 0
433 2 21.822767009323865 30.59850855226405 4.663253570855708 0 0 0
434 1 26.499074402976312 31.49846493861542 3.1043466666666526 0 0 0
435 2 24.940305271758756 30.598508552264086 4.663253570855695 0 0 0
436 2 28.057843534193953 30.598508552264132 4.663253570855651 0 0 0
437 1 29.61661266541161 31.49846493861541 3.104346666666661 0 0 0
438 2 31.17538179662935 30.598508552264132 4.663253570855602 0 0 0
439 1 32.73415092784697 31.498464938615435 3.1043466666666664 0 0 0
440 2 34.2929200590647 30.598508552264168 4.663253570855671 0 0 0
441 2 1.5587683034962778 33.298376958876474 4.663253570855534 0 0 0
442 2 4.676306565931254 33.29837695887736 4.663253570855233 0 0 0