LAMMPS data file via write_data, version 2 Aug 2023, timestep = 108, units = metal

38272 atoms
3 atom types

0 1247.0169093303346 xlo xhi
0 86.39585891739159 ylo yhi
0 50 zlo zhi
0 0 0 xy xz yz

Masses

1 95.94
2 32.065
3 32.065

Atoms # atomic

1 3 1.5587703089401186 0.899956903769024 1.5454403329607596 0 0 0
2 3 4.676312582265873 0.8999569037690307 1.5454403329609687 0 0 0
3 3 7.7938548555918254 0.8999569037690294 1.5454403329609638 0 0 0
4 3 10.911397128917702 0.8999569037690395 1.5454403329609623 0 0 0
5 3 14.028939402243527 0.899956903769012 1.5454403329609672 0 0 0
6 3 17.14648167556935 0.8999569037690148 1.5454403329609758 0 0 0
7 3 20.264023948895186 0.8999569037690095 1.545440332960966 0 0 0
8 3 23.381566222221 0.8999569037690213 1.5454403329609574 0 0 0
9 3 26.499108495546857 0.8999569037690225 1.5454403329609605 0 0 0
10 3 29.616650768872674 0.8999569037690196 1.545440332960958 0 0 0
11 3 32.73419304219852 0.8999569037690178 1.5454403329609552 0 0 0
12 3 3.117541445602996 3.5998274949375233 1.5454403329609023 0 0 0
13 3 6.235083718928853 3.5998274949375473 1.5454403329609618 0 0 0
14 3 9.35262599225476 3.5998274949375455 1.5454403329609656 0 0 0
15 3 12.470168265580607 3.5998274949375335 1.5454403329609645 0 0 0
16 3 15.587710538906435 3.5998274949375326 1.5454403329609645 0 0 0
17 3 18.705252812232263 3.5998274949375313 1.5454403329609645 0 0 0
18 3 21.82279508555808 3.599827494937531 1.545440332960964 0 0 0
19 3 24.94033735888393 3.5998274949375273 1.5454403329609685 0 0 0
20 3 28.057879632209755 3.59982749493753 1.5454403329609625 0 0 0
21 3 31.175421905535604 3.5998274949375317 1.5454403329609656 0 0 0
22 3 34.29296417886142 3.599827494937537 1.5454403329609612 0 0 0
23 3 1.5587703089400822 6.299698086106003 1.5454403329607775 0 0 0
24 3 4.676312582265861 6.299698086106042 1.5454403329609723 0 0 0
25 3 7.793854855591816 6.299698086106046 1.545440332960962 0 0 0
26 3 10.91139712891769 6.299698086106042 1.545440332960967 0 0 0
27 3 14.02893940224352 6.2996980861060345 1.545440332960967 0 0 0
28 3 17.14648167556935 6.299698086106036 1.5454403329609625 0 0 0
29 3 20.264023948895183 6.2996980861060345 1.545440332960968 0 0 0
30 3 23.381566222221004 6.29969808610603 1.5454403329609685 0 0 0
31 3 26.499108495546857 6.2996980861060266 1.5454403329609638 0 0 0
32 3 29.616650768872674 6.299698086106033 1.545440332960967 0 0 0
33 3 32.73419304219851 6.29969808610603 1.5454403329609567 0 0 0
34 3 3.117541445602986 8.999568677274524 1.5454403329608928 0 0 0
35 3 6.235083718928848 8.999568677274546 1.5454403329609652 0 0 0
36 3 9.352625992254756 8.999568677274542 1.5454403329609654 0 0 0
37 3 12.470168265580607 8.999568677274535 1.5454403329609652 0 0 0
38 3 15.587710538906435 8.999568677274535 1.545440332960963 0 0 0
39 3 18.705252812232263 8.999568677274533 1.5454403329609616 0 0 0
40 3 21.82279508555808 8.999568677274533 1.5454403329609645 0 0 0
41 3 24.94033735888393 8.999568677274535 1.5454403329609698 0 0 0
42 3 28.057879632209755 8.999568677274539 1.5454403329609614 0 0 0
43 3 31.175421905535604 8.999568677274532 1.5454403329609623 0 0 0
44 3 34.29296417886142 8.99956867727453 1.5454403329609578 0 0 0
45 3 1.5587703089400802 11.699439268442998 1.5454403329607682 0 0 0
46 3 4.676312582265859 11.699439268443033 1.5454403329609667 0 0 0
47 3 7.793854855591816 11.69943926844304 1.5454403329609583 0 0 0
48 3 10.911397128917685 11.699439268443033 1.5454403329609592 0 0 0
49 3 14.028939402243527 11.699439268443031 1.5454403329609625 0 0 0
50 3 17.14648167556935 11.699439268443026 1.5454403329609585 0 0 0
51 3 20.264023948895183 11.699439268443026 1.5454403329609605 0 0 0
52 3 23.381566222221004 11.699439268443026 1.545440332960963 0 0 0
53 3 26.499108495546857 11.699439268443026 1.5454403329609612 0 0 0
54 3 29.616650768872674 11.699439268443031 1.5454403329609543 0 0 0
55 3 32.73419304219851 11.699439268443026 1.5454403329609594 0 0 0
56 3 3.1175414456029933 14.399309859611499 1.5454403329609006 0 0 0
57 3 6.235083718928851 14.399309859611524 1.5454403329609638 0 0 0
58 3 9.352625992254756 14.39930985961152 1.54544033296096 0 0 0
59 3 12.470168265580602 14.399309859611506 1.5454403329609563 0 0 0
60 3 15.587710538906435 14.399309859611506 1.5454403329609614 0 0 0
61 3 18.705252812232263 14.399309859611506 1.5454403329609556 0 0 0
62 3 21.82279508555808 14.399309859611506 1.5454403329609558 0 0 0
63 3 24.94033735888393 14.399309859611506 1.5454403329609616 0 0 0
64 3 28.057879632209755 14.399309859611506 1.5454403329609552 0 0 0
65 3 31.175421905535604 14.399309859611506 1.5454403329609556 0 0 0
66 3 34.29296417886142 14.399309859611506 1.545440332960955 0 0 0
67 3 1.558770308940087 17.099180450779958 1.5454403329607838 0 0 0
68 3 4.676312582265856 17.099180450780008 1.5454403329609632 0 0 0
69 3 7.793854855591821 17.09918045078 1.5454403329609567 0 0 0
70 3 10.911397128917685 17.099180450779997 1.5454403329609612 0 0 0
71 3 14.02893940224352 17.09918045077999 1.5454403329609598 0 0 0
72 3 17.14648167556935 17.09918045077999 1.545440332960959 0 0 0
73 3 20.264023948895183 17.099180450779983 1.5454403329609596 0 0 0
74 3 23.381566222221004 17.09918045077999 1.5454403329609616 0 0 0
75 3 26.499108495546835 17.09918045077999 1.5454403329609618 0 0 0
76 3 29.616650768872674 17.099180450779997 1.5454403329609556 0 0 0
77 3 32.73419304219851 17.09918045077999 1.5454403329609612 0 0 0
78 3 3.1175414456030106 19.799051041948477 1.54544033296089 0 0 0
79 3 6.235083718928848 19.799051041948488 1.5454403329609632 0 0 0
80 3 9.352625992254765 19.799051041948484 1.5454403329609587 0 0 0
81 3 12.470168265580618 19.799051041948477 1.5454403329609625 0 0 0
82 3 15.587710538906435 19.799051041948477 1.5454403329609607 0 0 0
83 3 18.705252812232263 19.799051041948477 1.54544033296096 0 0 0
84 3 21.82279508555808 19.799051041948477 1.5454403329609596 0 0 0
85 3 24.94033735888393 19.799051041948484 1.5454403329609674 0 0 0
86 3 28.057879632209755 19.799051041948484 1.54544033296096 0 0 0
87 3 31.175421905535583 19.799051041948477 1.5454403329609523 0 0 0
88 3 34.29296417886142 19.799051041948477 1.5454403329609678 0 0 0
89 3 1.558770308940117 22.49892163311693 1.5454403329608013 0 0 0
90 3 4.676312582265874 22.498921633116996 1.545440332960967 0 0 0
91 3 7.793854855591831 22.49892163311697 1.5454403329609696 0 0 0
92 3 10.911397128917704 22.49892163311697 1.5454403329609632 0 0 0
93 3 14.02893940224353 22.49892163311697 1.5454403329609545 0 0 0
94 3 17.14648167556936 22.49892163311697 1.5454403329609556 0 0 0
95 3 20.264023948895183 22.49892163311697 1.5454403329609656 0 0 0
96 3 23.381566222221 22.49892163311697 1.5454403329609567 0 0 0
97 3 26.499108495546846 22.49892163311697 1.5454403329609656 0 0 0
98 3 29.616650768872674 22.498921633116982 1.5454403329609543 0 0 0
99 3 32.73419304219851 22.49892163311697 1.5454403329609676 0 0 0
100 3 3.1175414456030377 25.198792224285423 1.5454403329609012 0 0 0
101 3 6.235083718928868 25.19879222428546 1.545440332960966 0 0 0
102 3 9.352625992254781 25.19879222428547 1.5454403329609645 0 0 0
103 3 12.470168265580618 25.19879222428546 1.545440332960957 0 0 0
104 3 15.587710538906444 25.19879222428546 1.5454403329609638 0 0 0
105 3 18.705252812232267 25.19879222428545 1.5454403329609534 0 0 0
106 3 21.8227950855581 25.19879222428546 1.5454403329609594 0 0 0
107 3 24.94033735888392 25.19879222428546 1.545440332960955 0 0 0
108 3 28.057879632209747 25.198792224285473 1.5454403329609574 0 0 0
109 3 31.175421905535583 25.19879222428546 1.5454403329609525 0 0 0
110 3 34.29296417886142 25.19879222428545 1.5454403329609594 0 0 0
111 3 1.5587703089402138 27.898662815453903 1.545440332960843 0 0 0
112 3 4.676312582265965 27.898662815453946 1.5454403329609656 0 0 0
113 3 7.793854855591856 27.898662815453946 1.5454403329609567 0 0 0
114 3 10.911397128917711 27.898662815453946 1.5454403329609534 0 0 0
115 3 14.02893940224354 27.898662815453946 1.5454403329609534 0 0 0
116 3 17.146481675569362 27.898662815453946 1.5454403329609647 0 0 0
117 3 20.264023948895186 27.898662815453946 1.5454403329609614 0 0 0
118 3 23.381566222221004 27.898662815453946 1.5454403329609634 0 0 0
119 3 26.499108495546835 27.898662815453946 1.545440332960957 0 0 0
120 3 29.616650768872674 27.89866281545396 1.5454403329609652 0 0 0
121 3 32.73419304219852 27.898662815453946 1.5454403329609747 0 0 0
122 3 3.1175414456030883 30.598533406622412 1.5454403329608835 0 0 0
123 3 6.235083718928886 30.598533406622433 1.5454403329609656 0 0 0
124 3 9.352625992254785 30.598533406622426 1.5454403329609645 0 0 0
125 3 12.470168265580629 30.598533406622412 1.5454403329609565 0 0 0
126 3 15.587710538906455 30.598533406622444 1.545440332960959 0 0 0
127 3 18.705252812232267 30.598533406622426 1.5454403329609674 0 0 0
128 3 21.8227950855581 30.598533406622426 1.5454403329609567 0 0 0
129 3 24.94033735888392 30.598533406622412 1.545440332960959 0 0 0
130 3 28.057879632209747 30.598533406622412 1.5454403329609494 0 0 0
131 3 31.175421905535583 30.598533406622433 1.5454403329609598 0 0 0
132 3 34.29296417886142 30.598533406622426 1.5454403329609534 0 0 0
133 3 1.5587703089402387 33.298403997790906 1.5454403329608264 0 0 0
134 3 4.676312582265965 33.298403997790906 1.545440332960955 0 0 0
135 3 7.793854855591861 33.29840399779092 1.5454403329609543 0 0 0
136 3 10.911397128917711 33.29840399779092 1.5454403329609614 0 0 0
137 3 14.02893940224354 33.298403997790906 1.545440332960963 0 0 0
138 3 17.14648167556936 33.29840399779092 1.5454403329609576 0 0 0
139 3 20.264023948895186 33.298403997790906 1.5454403329609625 0 0 0
140 3 23.381566222221004 33.298403997790906 1.5454403329609585 0 0 0
141 3 26.49910849554685 33.29840399779089 1.5454403329609607 0 0 0
142 3 29.616650768872674 33.29840399779089 1.5454403329609505 0 0 0
143 3 32.73419304219851 33.29840399779089 1.5454403329609638 0 0 0
144 3 3.117541445603041 35.9982745889594 1.545440332960894 0 0 0
145 3 6.235083718928868 35.9982745889594 1.5454403329609556 0 0 0
146 3 9.35262599225479 35.9982745889594 1.5454403329609487 0 0 0
147 3 12.470168265580629 35.9982745889594 1.5454403329609612 0 0 0
148 3 15.587710538906444 35.9982745889594 1.5454403329609598 0 0 0
149 3 18.705252812232274 35.99827458895938 1.5454403329609518 0 0 0
150 3 21.82279508555808 35.9982745889594 1.545440332960955 0 0 0
151 3 24.94033735888392 35.99827458895938 1.5454403329609605 0 0 0
152 3 28.057879632209755 35.99827458895937 1.5454403329609518 0 0 0
153 3 31.175421905535583 35.99827458895938 1.5454403329609578 0 0 0
154 3 34.29296417886142 35.99827458895938 1.5454403329609439 0 0 0
155 3 1.5587703089402114 38.69814518012781 1.545440332960772 0 0 0
156 3 4.6763125822658935 38.69814518012787 1.5454403329609672 0 0 0
157 3 7.7938548555918405 38.69814518012786 1.545440332960955 0 0 0
158 3 10.911397128917704 38.69814518012787 1.5454403329609472 0 0 0
159 3 14.02893940224353 38.69814518012788 1.545440332960943 0 0 0
160 3 17.14648167556936 38.69814518012788 1.54544033296095 0 0 0
161 3 20.264023948895186 38.69814518012785 1.5454403329609567 0 0 0
162 3 23.381566222221004 38.69814518012787 1.545440332960949 0 0 0
163 3 26.499108495546857 38.69814518012786 1.54544033296096 0 0 0
164 3 29.616650768872674 38.69814518012785 1.5454403329609503 0 0 0
165 3 32.73419304219851 38.69814518012786 1.5454403329609567 0 0 0
166 3 3.117541445603016 41.39801577129633 1.5454403329608948 0 0 0
167 3 6.235083718928861 41.39801577129633 1.5454403329609636 0 0 0
168 3 9.352625992254774 41.39801577129634 1.5454403329609592 0 0 0
169 3 12.470168265580618 41.39801577129633 1.5454403329609565 0 0 0
170 3 15.587710538906444 41.39801577129634 1.5454403329609563 0 0 0
171 3 18.705252812232263 41.39801577129633 1.5454403329609638 0 0 0
172 3 21.8227950855581 41.39801577129633 1.5454403329609623 0 0 0
173 3 24.94033735888393 41.39801577129633 1.5454403329609705 0 0 0
174 3 28.057879632209755 41.39801577129633 1.5454403329609578 0 0 0
175 3 31.175421905535583 41.398015771296315 1.545440332960964 0 0 0
176 3 34.29296417886142 41.39801577129634 1.5454403329609696 0 0 0
177 2 1.558770308940117 0.899956903769022 4.663253000372578 0 0 0
178 2 4.67631258226587 0.8999569037690281 4.663253000372367 0 0 0
179 1 3.1175414456030257 1.7999137301253123 3.1043466666666606 0 0 0
180 2 7.793854855591816 0.899956903769029 4.663253000372374 0 0 0
181 1 6.235083718928863 1.7999137301253165 3.104346666666671 0 0 0
182 1 9.352625992254769 1.7999137301253187 3.1043466666666686 0 0 0
183 2 10.911397128917693 0.899956903769032 4.663253000372385 0 0 0
184 1 12.470168265580611 1.7999137301253196 3.1043466666666713 0 0 0
185 2 14.028939402243527 0.8999569037690037 4.663253000372383 0 0 0
186 1 15.587710538906435 1.7999137301253143 3.1043466666666726 0 0 0
187 2 17.14648167556936 0.8999569037690095 4.663253000372378 0 0 0
188 2 20.264023948895186 0.899956903769009 4.663253000372383 0 0 0
189 1 18.705252812232256 1.7999137301253185 3.104346666666675 0 0 0
190 2 23.381566222221 0.8999569037690178 4.663253000372392 0 0 0
191 1 21.8227950855581 1.7999137301253119 3.1043466666666713 0 0 0
192 2 26.499108495546857 0.8999569037690192 4.6632530003723875 0 0 0
193 1 24.94033735888392 1.799913730125316 3.1043466666666713 0 0 0
194 1 28.05787963220975 1.799913730125316 3.104346666666675 0 0 0
195 2 29.616650768872674 0.899956903769021 4.663253000372393 0 0 0
196 1 31.175421905535583 1.7999137301253192 3.1043466666666717 0 0 0
197 2 32.73419304219852 0.8999569037690153 4.663253000372386 0 0 0
198 1 34.29296417886142 1.799913730125317 3.104346666666675 0 0 0
199 1 1.5587703089396912 4.499784321293766 3.1043466666667046 0 0 0
200 1 4.676312582265891 4.499784321293819 3.104346666666661 0 0 0
201 2 3.1175414456030013 3.5998274949375197 4.663253000372443 0 0 0
202 1 7.793854855591801 4.499784321293823 3.104346666666672 0 0 0
203 2 6.235083718928853 3.5998274949375504 4.663253000372375 0 0 0
204 2 9.352625992254756 3.5998274949375473 4.663253000372381 0 0 0
205 1 10.911397128917685 4.499784321293831 3.104346666666675 0 0 0
206 2 12.470168265580607 3.599827494937537 4.663253000372386 0 0 0
207 1 14.028939402243518 4.4997843212938315 3.1043466666666757 0 0 0
208 2 15.587710538906435 3.5998274949375353 4.663253000372386 0 0 0
209 1 17.14648167556935 4.49978432129382 3.104346666666675 0 0 0
210 1 20.264023948895204 4.499784321293825 3.1043466666666752 0 0 0
211 2 18.705252812232263 3.5998274949375335 4.663253000372387 0 0 0
212 1 23.381566222221004 4.499784321293825 3.104346666666672 0 0 0
213 2 21.82279508555808 3.599827494937531 4.663253000372387 0 0 0
214 1 26.499108495546835 4.499784321293828 3.104346666666675 0 0 0
215 2 24.94033735888393 3.5998274949375273 4.66325300037238 0 0 0
216 2 28.057879632209755 3.599827494937531 4.663253000372385 0 0 0
217 1 29.616650768872656 4.499784321293822 3.104346666666672 0 0 0
218 2 31.175421905535604 3.599827494937533 4.663253000372379 0 0 0
219 1 32.73419304219849 4.499784321293824 3.1043466666666713 0 0 0
220 2 34.29296417886142 3.5998274949375353 4.663253000372381 0 0 0
221 2 1.5587703089400846 6.299698086106012 4.663253000372569 0 0 0
222 2 4.676312582265861 6.299698086106043 4.6632530003723645 0 0 0
223 1 3.1175414456029986 7.199654912462301 3.1043466666666624 0 0 0
224 2 7.793854855591816 6.299698086106047 4.663253000372375 0 0 0
225 1 6.235083718928853 7.199654912462316 3.104346666666671 0 0 0
226 1 9.352625992254762 7.199654912462323 3.10434666666667 0 0 0
227 2 10.911397128917685 6.299698086106046 4.663253000372377 0 0 0
228 1 12.470168265580599 7.199654912462325 3.1043466666666726 0 0 0
229 2 14.02893940224352 6.2996980861060345 4.663253000372379 0 0 0
230 1 15.587710538906435 7.1996549124623215 3.1043466666666717 0 0 0
231 2 17.14648167556935 6.299698086106038 4.663253000372385 0 0 0
232 2 20.264023948895183 6.2996980861060345 4.663253000372379 0 0 0
233 1 18.705252812232267 7.199654912462325 3.104346666666672 0 0 0
234 2 23.381566222221004 6.2996980861060345 4.663253000372376 0 0 0
235 1 21.82279508555808 7.1996549124623215 3.1043466666666713 0 0 0
236 2 26.499108495546857 6.29969808610603 4.6632530003723796 0 0 0
237 1 24.94033735888391 7.199654912462325 3.1043466666666717 0 0 0
238 1 28.057879632209737 7.199654912462309 3.1043466666666704 0 0 0
239 2 29.616650768872674 6.299698086106038 4.663253000372376 0 0 0
240 1 31.175421905535583 7.199654912462316 3.104346666666668 0 0 0
241 2 32.73419304219851 6.2996980861060345 4.663253000372383 0 0 0
242 1 34.29296417886142 7.19965491246232 3.1043466666666713 0 0 0
243 1 1.5587703089397487 9.899525503630775 3.1043466666666664 0 0 0
244 1 4.676312582265889 9.899525503630807 3.1043466666666695 0 0 0
245 2 3.117541445602986 8.999568677274524 4.663253000372437 0 0 0
246 1 7.793854855591801 9.899525503630814 3.1043466666666686 0 0 0
247 2 6.235083718928845 8.99956867727455 4.663253000372369 0 0 0
248 2 9.352625992254756 8.999568677274546 4.663253000372375 0 0 0
249 1 10.911397128917685 9.89952550363082 3.1043466666666704 0 0 0
250 2 12.470168265580606 8.999568677274539 4.663253000372378 0 0 0
251 1 14.028939402243518 9.89952550363081 3.104346666666671 0 0 0
252 2 15.587710538906435 8.999568677274539 4.66325300037238 0 0 0
253 1 17.14648167556935 9.899525503630818 3.1043466666666717 0 0 0
254 1 20.264023948895193 9.89952550363081 3.10434666666667 0 0 0
255 2 18.705252812232263 8.999568677274535 4.6632530003723796 0 0 0
256 1 23.381566222221004 9.89952550363081 3.104346666666671 0 0 0
257 2 21.82279508555808 8.999568677274535 4.663253000372379 0 0 0
258 1 26.499108495546835 9.899525503630821 3.104346666666672 0 0 0
259 2 24.94033735888393 8.999568677274535 4.663253000372371 0 0 0
260 2 28.057879632209755 8.999568677274539 4.66325300037238 0 0 0
261 1 29.616650768872674 9.89952550363081 3.104346666666669 0 0 0
262 2 31.175421905535604 8.999568677274535 4.663253000372375 0 0 0
263 1 32.7341930421985 9.89952550363082 3.1043466666666686 0 0 0
264 2 34.29296417886142 8.999568677274532 4.6632530003723796 0 0 0
265 2 1.558770308940076 11.699439268442996 4.663253000372563 0 0 0
266 2 4.676312582265859 11.699439268443038 4.663253000372367 0 0 0
267 1 3.1175414456029937 12.599396094799287 3.1043466666666584 0 0 0
268 2 7.793854855591816 11.69943926844304 4.663253000372378 0 0 0
269 1 6.235083718928853 12.59939609479931 3.1043466666666704 0 0 0
270 1 9.352625992254755 12.599396094799317 3.1043466666666686 0 0 0
271 2 10.911397128917685 11.699439268443033 4.6632530003723796 0 0 0
272 1 12.470168265580599 12.59939609479931 3.1043466666666686 0 0 0
273 2 14.02893940224352 11.699439268443031 4.663253000372379 0 0 0
274 1 15.587710538906425 12.599396094799303 3.104346666666672 0 0 0
275 2 17.14648167556935 11.699439268443026 4.663253000372382 0 0 0
276 2 20.264023948895183 11.699439268443026 4.663253000372381 0 0 0
277 1 18.705252812232267 12.599396094799303 3.1043466666666695 0 0 0
278 2 23.381566222221004 11.699439268443026 4.663253000372377 0 0 0
279 1 21.8227950855581 12.59939609479931 3.104346666666671 0 0 0
280 2 26.499108495546857 11.699439268443026 4.663253000372378 0 0 0
281 1 24.94033735888391 12.59939609479931 3.10434666666667 0 0 0
282 1 28.057879632209733 12.599396094799296 3.1043466666666695 0 0 0
283 2 29.616650768872674 11.699439268443031 4.663253000372384 0 0 0
284 1 31.175421905535604 12.599396094799303 3.1043466666666686 0 0 0
285 2 32.73419304219851 11.699439268443026 4.663253000372377 0 0 0
286 1 34.29296417886142 12.59939609479931 3.1043466666666695 0 0 0
287 1 1.5587703089396876 15.29926668596775 3.104346666666699 0 0 0
288 1 4.676312582265888 15.299266685967767 3.1043466666666606 0 0 0
289 2 3.117541445603001 14.399309859611499 4.663253000372445 0 0 0
290 1 7.793854855591796 15.299266685967774 3.104346666666665 0 0 0
291 2 6.235083718928848 14.399309859611531 4.663253000372366 0 0 0
292 2 9.352625992254756 14.39930985961152 4.663253000372378 0 0 0
293 1 10.91139712891769 15.299266685967797 3.1043466666666704 0 0 0
294 2 12.470168265580599 14.399309859611506 4.663253000372382 0 0 0
295 1 14.028939402243523 15.29926668596779 3.10434666666667 0 0 0
296 2 15.587710538906435 14.399309859611506 4.663253000372379 0 0 0
297 1 17.14648167556935 15.29926668596779 3.1043466666666704 0 0 0
298 1 20.264023948895186 15.299266685967805 3.104346666666667 0 0 0
299 2 18.705252812232263 14.399309859611506 4.663253000372384 0 0 0
300 1 23.381566222221004 15.299266685967805 3.104346666666672 0 0 0
301 2 21.82279508555808 14.399309859611506 4.663253000372383 0 0 0
302 1 26.499108495546835 15.299266685967797 3.1043466666666664 0 0 0
303 2 24.94033735888393 14.399309859611506 4.663253000372378 0 0 0
304 2 28.057879632209755 14.399309859611506 4.663253000372381 0 0 0
305 1 29.616650768872674 15.299266685967797 3.1043466666666704 0 0 0
306 2 31.175421905535604 14.399309859611506 4.66325300037238 0 0 0
307 1 32.73419304219851 15.299266685967812 3.1043466666666664 0 0 0
308 2 34.29296417886142 14.399309859611506 4.663253000372379 0 0 0
309 2 1.5587703089400908 17.099180450779965 4.663253000372562 0 0 0
310 2 4.676312582265854 17.099180450780008 4.6632530003723645 0 0 0
311 1 3.1175414456030075 17.99913727713625 3.104346666666661 0 0 0
312 2 7.793854855591816 17.099180450780004 4.663253000372376 0 0 0
313 1 6.235083718928856 17.99913727713627 3.104346666666671 0 0 0
314 1 9.352625992254755 17.99913727713627 3.104346666666667 0 0 0
315 2 10.911397128917685 17.099180450779997 4.663253000372378 0 0 0
316 1 12.470168265580606 17.999137277136278 3.104346666666669 0 0 0
317 2 14.02893940224352 17.099180450779997 4.6632530003723796 0 0 0
318 1 15.587710538906435 17.999137277136278 3.1043466666666677 0 0 0
319 2 17.14648167556935 17.09918045077999 4.6632530003723796 0 0 0
320 2 20.264023948895186 17.09918045077999 4.663253000372379 0 0 0
321 1 18.705252812232246 17.999137277136292 3.10434666666667 0 0 0
322 2 23.381566222221004 17.099180450779997 4.663253000372375 0 0 0
323 1 21.82279508555808 17.999137277136285 3.104346666666668 0 0 0
324 2 26.499108495546835 17.099180450779997 4.66325300037238 0 0 0
325 1 24.94033735888392 17.999137277136285 3.1043466666666726 0 0 0
326 1 28.057879632209737 17.999137277136285 3.1043466666666637 0 0 0
327 2 29.616650768872674 17.099180450779997 4.663253000372378 0 0 0
328 1 31.175421905535604 17.999137277136278 3.1043466666666677 0 0 0
329 2 32.73419304219851 17.09918045077999 4.663253000372375 0 0 0
330 1 34.29296417886142 17.999137277136292 3.104346666666667 0 0 0
331 1 1.558770308939868 20.699007868304744 3.104346666666663 0 0 0
332 1 4.6763125822658935 20.69900786830473 3.104346666666665 0 0 0
333 2 3.1175414456030084 19.79905104194847 4.663253000372443 0 0 0
334 1 7.793854855591806 20.69900786830477 3.104346666666669 0 0 0
335 2 6.235083718928848 19.799051041948488 4.663253000372369 0 0 0
336 2 9.352625992254765 19.799051041948484 4.663253000372378 0 0 0
337 1 10.911397128917692 20.69900786830475 3.104346666666669 0 0 0
338 2 12.470168265580618 19.799051041948477 4.663253000372374 0 0 0
339 1 14.028939402243523 20.69900786830475 3.1043466666666673 0 0 0
340 2 15.587710538906435 19.799051041948477 4.663253000372377 0 0 0
341 1 17.14648167556935 20.699007868304765 3.1043466666666704 0 0 0
342 1 20.264023948895186 20.699007868304776 3.1043466666666677 0 0 0
343 2 18.705252812232256 19.799051041948477 4.663253000372377 0 0 0
344 1 23.381566222221004 20.699007868304765 3.1043466666666704 0 0 0
345 2 21.82279508555808 19.799051041948484 4.663253000372379 0 0 0
346 1 26.499108495546835 20.699007868304758 3.1043466666666664 0 0 0
347 2 24.94033735888393 19.799051041948484 4.663253000372377 0 0 0
348 2 28.057879632209755 19.799051041948484 4.663253000372377 0 0 0
349 1 29.616650768872674 20.699007868304758 3.1043466666666735 0 0 0
350 2 31.175421905535583 19.799051041948484 4.663253000372378 0 0 0
351 1 32.73419304219852 20.69900786830479 3.104346666666664 0 0 0
352 2 34.29296417886142 19.799051041948477 4.663253000372367 0 0 0
353 2 1.5587703089401146 22.498921633116915 4.663253000372536 0 0 0
354 2 4.676312582265878 22.498921633116996 4.663253000372371 0 0 0
355 1 3.1175414456029977 23.39887845947321 3.1043466666666664 0 0 0
356 2 7.793854855591831 22.49892163311697 4.6632530003723645 0 0 0
357 1 6.235083718928868 23.398878459473224 3.104346666666668 0 0 0
358 1 9.352625992254769 23.398878459473224 3.1043466666666695 0 0 0
359 2 10.911397128917704 22.49892163311697 4.663253000372374 0 0 0
360 1 12.47016826558061 23.398878459473238 3.1043466666666673 0 0 0
361 2 14.02893940224353 22.49892163311697 4.66325300037238 0 0 0
362 1 15.587710538906435 23.398878459473252 3.1043466666666673 0 0 0
363 2 17.14648167556935 22.49892163311697 4.663253000372381 0 0 0
364 2 20.264023948895186 22.49892163311697 4.663253000372372 0 0 0
365 1 18.705252812232274 23.398878459473238 3.1043466666666673 0 0 0
366 2 23.381566222221 22.49892163311697 4.663253000372379 0 0 0
367 1 21.82279508555808 23.39887845947325 3.1043466666666704 0 0 0
368 2 26.499108495546857 22.498921633116982 4.663253000372373 0 0 0
369 1 24.94033735888392 23.398878459473238 3.1043466666666752 0 0 0
370 1 28.05787963220975 23.398878459473224 3.1043466666666624 0 0 0
371 2 29.616650768872674 22.498921633116982 4.66325300037238 0 0 0
372 1 31.17542190553562 23.398878459473238 3.1043466666666664 0 0 0
373 2 32.73419304219851 22.49892163311697 4.663253000372366 0 0 0
374 1 34.29296417886142 23.39887845947325 3.104346666666667 0 0 0
375 1 1.5587703089398666 26.09874905064166 3.104346666666689 0 0 0
376 1 4.6763125822659255 26.098749050641704 3.1043466666666597 0 0 0
377 2 3.117541445603041 25.198792224285423 4.663253000372442 0 0 0
378 1 7.7938548555918254 26.098749050641718 3.1043466666666677 0 0 0
379 2 6.23508371892887 25.19879222428546 4.663253000372371 0 0 0
380 2 9.352625992254781 25.19879222428547 4.663253000372375 0 0 0
381 1 10.911397128917702 26.098749050641718 3.1043466666666673 0 0 0
382 2 12.47016826558062 25.19879222428546 4.663253000372379 0 0 0
383 1 14.028939402243537 26.098749050641718 3.1043466666666686 0 0 0
384 2 15.587710538906444 25.19879222428545 4.663253000372372 0 0 0
385 1 17.14648167556935 26.098749050641747 3.1043466666666686 0 0 0
386 1 20.264023948895204 26.098749050641747 3.1043466666666686 0 0 0
387 2 18.705252812232267 25.19879222428546 4.663253000372382 0 0 0
388 1 23.381566222221004 26.098749050641747 3.1043466666666664 0 0 0
389 2 21.8227950855581 25.19879222428546 4.6632530003723796 0 0 0
390 1 26.499108495546874 26.098749050641732 3.1043466666666664 0 0 0
391 2 24.94033735888392 25.19879222428546 4.663253000372384 0 0 0
392 2 28.057879632209747 25.198792224285473 4.66325300037238 0 0 0
393 1 29.61665076887269 26.09874905064176 3.1043466666666686 0 0 0
394 2 31.175421905535583 25.19879222428546 4.663253000372382 0 0 0
395 1 32.73419304219851 26.09874905064176 3.104346666666668 0 0 0
396 2 34.29296417886142 25.19879222428545 4.663253000372379 0 0 0
397 2 1.5587703089402196 27.898662815453903 4.6632530003725 0 0 0
398 2 4.676312582265967 27.898662815453946 4.663253000372375 0 0 0
399 1 3.1175414456030928 28.798619641810184 3.1043466666666633 0 0 0
400 2 7.79385485559185 27.898662815453946 4.663253000372373 0 0 0
401 1 6.235083718928908 28.7986196418102 3.1043466666666713 0 0 0
402 1 9.352625992254781 28.7986196418102 3.1043466666666735 0 0 0
403 2 10.911397128917711 27.898662815453946 4.663253000372381 0 0 0
404 1 12.470168265580629 28.798619641810227 3.104346666666665 0 0 0
405 2 14.028939402243537 27.898662815453946 4.663253000372381 0 0 0
406 1 15.587710538906453 28.798619641810223 3.1043466666666615 0 0 0
407 2 17.146481675569362 27.898662815453946 4.663253000372373 0 0 0
408 2 20.264023948895186 27.898662815453946 4.663253000372375 0 0 0
409 1 18.705252812232263 28.798619641810237 3.1043466666666704 0 0 0
410 2 23.381566222221004 27.898662815453946 4.663253000372375 0 0 0
411 1 21.82279508555808 28.798619641810212 3.1043466666666717 0 0 0
412 2 26.499108495546857 27.898662815453946 4.663253000372377 0 0 0
413 1 24.94033735888391 28.798619641810223 3.104346666666673 0 0 0
414 1 28.057879632209737 28.7986196418102 3.1043466666666686 0 0 0
415 2 29.616650768872674 27.89866281545396 4.663253000372369 0 0 0
416 1 31.175421905535583 28.798619641810177 3.1043466666666695 0 0 0
417 2 32.73419304219852 27.898662815453946 4.663253000372362 0 0 0
418 1 34.29296417886142 28.798619641810184 3.1043466666666664 0 0 0
419 1 1.5587703089398648 31.498490232978597 3.104346666666668 0 0 0
420 1 4.676312582265941 31.498490232978664 3.1043466666666664 0 0 0
421 2 3.1175414456030865 30.598533406622412 4.663253000372446 0 0 0
422 1 7.793854855591836 31.498490232978664 3.104346666666662 0 0 0
423 2 6.235083718928883 30.598533406622444 4.663253000372368 0 0 0
424 2 9.35262599225479 30.598533406622426 4.663253000372373 0 0 0
425 1 10.9113971289177 31.498490232978707 3.1043466666666664 0 0 0
426 2 12.470168265580638 30.598533406622412 4.663253000372378 0 0 0
427 1 14.02893940224354 31.498490232978707 3.1043466666666735 0 0 0
428 2 15.587710538906455 30.598533406622426 4.663253000372374 0 0 0
429 1 17.14648167556936 31.498490232978693 3.1043466666666695 0 0 0
430 1 20.264023948895172 31.498490232978707 3.104346666666668 0 0 0
431 2 18.705252812232267 30.598533406622426 4.663253000372368 0 0 0
432 1 23.381566222221004 31.49849023297868 3.104346666666668 0 0 0
433 2 21.8227950855581 30.598533406622426 4.663253000372382 0 0 0
434 1 26.49910849554685 31.498490232978707 3.104346666666665 0 0 0
435 2 24.94033735888392 30.598533406622412 4.663253000372379 0 0 0
436 2 28.057879632209755 30.598533406622412 4.663253000372388 0 0 0
437 1 29.616650768872674 31.498490232978707 3.104346666666668 0 0 0
438 2 31.175421905535604 30.598533406622433 4.663253000372376 0 0 0
439 1 32.73419304219849 31.498490232978693 3.104346666666668 0 0 0
440 2 34.29296417886142 30.598533406622426 4.6632530003723796 0 0 0
441 2 1.558770308940234 33.29840399779089 4.6632530003725154 0 0 0
442 2 4.676312582265973 33.29840399779089 4.6632530003723796 0 0 0