LAMMPS data file via write_data, version 2 Aug 2023, timestep = 436, units = metal

37152 atoms
3 atom types

0 1247.0143684663444 xlo xhi
0 86.39570085585223 ylo yhi
0 50 zlo zhi
0 0 0 xy xz yz

Masses

1 95.94
2 32.065
3 32.065

Atoms # atomic

1 3 1.558767132862134 0.8999552214357498 1.545439419231717 0 0 0
2 3 4.676303054028034 0.8999552214353798 1.5454394192315224 0 0 0
3 3 7.793838975193737 0.8999552214354645 1.5454394192315684 0 0 0
4 3 10.911374896359616 0.8999552214354714 1.5454394192315501 0 0 0
5 3 14.028910817525388 0.8999552214354932 1.5454394192315528 0 0 0
6 3 17.146446738691267 0.8999552214354526 1.5454394192315857 0 0 0
7 3 20.26398265985713 0.8999552214354305 1.5454394192315901 0 0 0
8 3 23.38151858102292 0.8999552214354714 1.5454394192315504 0 0 0
9 3 26.499054502188766 0.8999552214354299 1.5454394192315888 0 0 0
10 3 29.616590423354623 0.8999552214354515 1.54543941923157 0 0 0
11 3 32.73412634452045 0.8999552214354268 1.545439419231566 0 0 0
12 3 35.85166226568631 0.8999552214354637 1.5454394192315555 0 0 0
401 3 38.96919818685219 0.8999552214354757 1.5454394192315548 0 0 0
13 3 3.117535093445211 3.5998208731808377 1.5454394192313785 0 0 0
14 3 6.2350710146107415 3.599820873180865 1.5454394192315868 0 0 0
15 3 9.352606935776787 3.5998208731808616 1.545439419231539 0 0 0
16 3 12.470142856942495 3.599820873180834 1.5454394192315413 0 0 0
17 3 15.587678778108302 3.5998208731808576 1.5454394192315657 0 0 0
18 3 18.7052146992742 3.599820873180859 1.5454394192315593 0 0 0
19 3 21.822750620440022 3.599820873180856 1.5454394192315475 0 0 0
20 3 24.940286541605825 3.5998208731808496 1.545439419231549 0 0 0
21 3 28.057822462771625 3.599820873180868 1.545439419231558 0 0 0
22 3 31.175358383937546 3.59982087318086 1.545439419231556 0 0 0
23 3 34.29289430510339 3.599820873180867 1.5454394192315453 0 0 0
24 3 37.41043022626925 3.599820873180865 1.5454394192315524 0 0 0
25 3 1.55876713286206 6.299686524926438 1.5454394192317213 0 0 0
26 3 4.676303054028012 6.299686524926238 1.5454394192315228 0 0 0
27 3 7.793838975193747 6.299686524926286 1.5454394192315417 0 0 0
28 3 10.911374896359593 6.299686524926253 1.545439419231548 0 0 0
29 3 14.028910817525368 6.2996865249262335 1.545439419231556 0 0 0
30 3 17.14644673869127 6.299686524926231 1.5454394192315641 0 0 0
31 3 20.26398265985713 6.299686524926234 1.545439419231555 0 0 0
32 3 23.381518581022934 6.299686524926242 1.545439419231551 0 0 0
33 3 26.499054502188745 6.299686524926222 1.5454394192315661 0 0 0
34 3 29.61659042335461 6.2996865249262415 1.5454394192315424 0 0 0
35 3 32.734126344520426 6.299686524926246 1.5454394192315615 0 0 0
36 3 35.85166226568634 6.299686524926253 1.5454394192315524 0 0 0
400 3 38.96919818685213 6.299686524926255 1.5454394192315593 0 0 0
37 3 3.1175350934451767 8.999552176671568 1.545439419231374 0 0 0
38 3 6.235071014610687 8.999552176671681 1.5454394192315841 0 0 0
39 3 9.352606935776688 8.999552176671648 1.5454394192315535 0 0 0
40 3 12.470142856942466 8.999552176671626 1.5454394192315486 0 0 0
41 3 15.587678778108302 8.999552176671626 1.5454394192315657 0 0 0
42 3 18.705214699274194 8.999552176671616 1.545439419231558 0 0 0
43 3 21.82275062044 8.999552176671637 1.5454394192315488 0 0 0
44 3 24.940286541605843 8.999552176671605 1.545439419231555 0 0 0
45 3 28.057822462771668 8.999552176671626 1.545439419231562 0 0 0
46 3 31.17535838393751 8.9995521766716 1.5454394192315482 0 0 0
47 3 34.2928943051034 8.999552176671626 1.545439419231563 0 0 0
48 3 37.41043022626926 8.999552176671633 1.5454394192315604 0 0 0
49 3 1.558767132861597 11.699417828417346 1.5454394192319802 0 0 0
50 3 4.676303054027934 11.699417828416975 1.5454394192315455 0 0 0
51 3 7.793838975193678 11.699417828416994 1.5454394192315641 0 0 0
52 3 10.911374896359554 11.699417828417022 1.5454394192315566 0 0 0
53 3 14.02891081752535 11.699417828417015 1.5454394192315535 0 0 0
54 3 17.14644673869127 11.699417828417024 1.5454394192315746 0 0 0
55 3 20.263982659857135 11.699417828417001 1.54543941923156 0 0 0
56 3 23.381518581022934 11.699417828416975 1.5454394192315566 0 0 0
57 3 26.49905450218876 11.69941782841701 1.5454394192315544 0 0 0
58 3 29.616590423354623 11.699417828417017 1.5454394192315557 0 0 0
59 3 32.734126344520426 11.69941782841701 1.545439419231551 0 0 0
60 3 35.851662265686365 11.699417828417017 1.545439419231568 0 0 0
397 3 38.969198186852225 11.699417828417038 1.5454394192315613 0 0 0
61 3 3.1175350934452464 14.399283480162358 1.5454394192313363 0 0 0
62 3 6.2350710146107104 14.399283480162376 1.5454394192315832 0 0 0
63 3 9.352606935776723 14.399283480162385 1.545439419231559 0 0 0
64 3 12.470142856942497 14.399283480162376 1.5454394192315468 0 0 0
65 3 15.587678778108321 14.399283480162413 1.5454394192315584 0 0 0
66 3 18.705214699274194 14.3992834801624 1.5454394192315544 0 0 0
67 3 21.82275062043998 14.399283480162385 1.5454394192315497 0 0 0
68 3 24.940286541605804 14.399283480162405 1.54543941923156 0 0 0
69 3 28.057822462771625 14.399283480162406 1.5454394192315684 0 0 0
70 3 31.175358383937525 14.39928348016242 1.5454394192315646 0 0 0
71 3 34.2928943051034 14.399283480162406 1.5454394192315595 0 0 0
72 3 37.41043022626923 14.399283480162397 1.545439419231569 0 0 0
73 3 1.558767132862303 17.099149131907982 1.5454394192316976 0 0 0
74 3 4.676303054028006 17.099149131907737 1.5454394192315064 0 0 0
75 3 7.793838975193738 17.09914913190781 1.5454394192315606 0 0 0
76 3 10.911374896359598 17.09914913190781 1.545439419231548 0 0 0
77 3 14.028910817525357 17.09914913190777 1.5454394192315508 0 0 0
78 3 17.146446738691242 17.099149131907822 1.545439419231551 0 0 0
79 3 20.263982659857078 17.09914913190779 1.5454394192315475 0 0 0
80 3 23.381518581022934 17.099149131907776 1.5454394192315455 0 0 0
81 3 26.49905450218876 17.099149131907776 1.5454394192315428 0 0 0
82 3 29.61659042335461 17.099149131907783 1.5454394192315424 0 0 0
83 3 32.734126344520426 17.099149131907797 1.545439419231564 0 0 0
84 3 35.85166226568635 17.099149131907755 1.5454394192315453 0 0 0
395 3 38.969198186852175 17.099149131907804 1.545439419231557 0 0 0
85 3 3.117535093444854 19.799014783653128 1.5454394192315584 0 0 0
86 3 6.235071014610672 19.79901478365317 1.545439419231574 0 0 0
87 3 9.352606935776713 19.79901478365318 1.5454394192315586 0 0 0
88 3 12.470142856942507 19.799014783653163 1.5454394192315377 0 0 0
89 3 15.587678778108321 19.799014783653153 1.5454394192315517 0 0 0
90 3 18.705214699274222 19.79901478365314 1.5454394192315444 0 0 0
91 3 21.822750620439983 19.79901478365314 1.5454394192315482 0 0 0
92 3 24.940286541605865 19.79901478365318 1.5454394192315615 0 0 0
93 3 28.057822462771703 19.799014783653163 1.5454394192315686 0 0 0
94 3 31.175358383937546 19.79901478365316 1.5454394192315433 0 0 0
95 3 34.292894305103424 19.79901478365311 1.5454394192315566 0 0 0
96 3 37.41043022626923 19.799014783653128 1.545439419231549 0 0 0
97 3 1.5587671328620254 22.498880435398505 1.5454394192317789 0 0 0
98 3 4.6763030540279775 22.49888043539853 1.545439419231517 0 0 0
99 3 7.793838975193733 22.49888043539853 1.5454394192315637 0 0 0
100 3 10.911374896359598 22.498880435398476 1.545439419231536 0 0 0
101 3 14.028910817525357 22.498880435398515 1.5454394192315475 0 0 0
102 3 17.146446738691253 22.49888043539854 1.5454394192315557 0 0 0
103 3 20.263982659857096 22.49888043539854 1.5454394192315426 0 0 0
104 3 23.38151858102294 22.49888043539852 1.5454394192315397 0 0 0
105 3 26.499054502188724 22.49888043539854 1.5454394192315446 0 0 0
106 3 29.616590423354626 22.498880435398494 1.54543941923154 0 0 0
107 3 32.734126344520405 22.498880435398515 1.5454394192315424 0 0 0
108 3 35.85166226568631 22.49888043539856 1.545439419231544 0 0 0
393 3 38.96919818685211 22.49888043539849 1.5454394192315515 0 0 0
109 3 3.1175350934448858 25.19874608714385 1.5454394192314098 0 0 0
110 3 6.235071014610573 25.198746087143988 1.5454394192316 0 0 0
111 3 9.352606935776718 25.198746087143924 1.5454394192315661 0 0 0
112 3 12.47014285694249 25.198746087143874 1.545439419231545 0 0 0
113 3 15.587678778108321 25.198746087143903 1.5454394192315764 0 0 0
114 3 18.7052146992742 25.198746087143878 1.5454394192315593 0 0 0
115 3 21.822750620440022 25.198746087143878 1.545439419231554 0 0 0
116 3 24.940286541605865 25.19874608714389 1.545439419231555 0 0 0
117 3 28.057822462771625 25.198746087143903 1.545439419231551 0 0 0
118 3 31.175358383937503 25.198746087143853 1.5454394192315657 0 0 0
119 3 34.2928943051034 25.198746087143903 1.5454394192315646 0 0 0
120 3 37.41043022626926 25.198746087143917 1.5454394192315566 0 0 0
121 3 1.5587671328622967 27.89861173888924 1.5454394192316487 0 0 0
122 3 4.676303054027842 27.89861173888924 1.5454394192315155 0 0 0
123 3 7.793838975193628 27.89861173888931 1.5454394192315575 0 0 0
124 3 10.911374896359568 27.89861173888925 1.5454394192315437 0 0 0
125 3 14.028910817525361 27.898611738889215 1.545439419231548 0 0 0
126 3 17.14644673869127 27.898611738889226 1.5454394192315573 0 0 0
127 3 20.263982659857113 27.898611738889215 1.5454394192315657 0 0 0
128 3 23.38151858102294 27.89861173888927 1.5454394192315624 0 0 0
129 3 26.499054502188777 27.898611738889194 1.5454394192315402 0 0 0
130 3 29.61659042335455 27.898611738889198 1.5454394192315444 0 0 0
131 3 32.73412634452042 27.89861173888925 1.545439419231565 0 0 0
132 3 35.851662265686365 27.89861173888925 1.5454394192315508 0 0 0
391 3 38.96919818685221 27.898611738889254 1.5454394192315801 0 0 0
133 2 1.5587671328621073 0.8999552214356302 4.663253914101373 0 0 0
134 2 4.676303054028016 0.8999552214354305 4.663253914101857 0 0 0
135 1 3.117535093445219 1.7999105088950433 3.1043466666666597 0 0 0
136 1 6.235071014610831 1.7999105088949148 3.104346666666658 0 0 0
137 2 7.793838975193733 0.8999552214354731 4.663253914101779 0 0 0
138 1 9.352606935776693 1.7999105088949208 3.1043466666666593 0 0 0
139 2 10.911374896359607 0.8999552214354741 4.663253914101782 0 0 0
140 1 12.470142856942457 1.7999105088949328 3.1043466666666673 0 0 0
141 2 14.02891081752537 0.8999552214354851 4.663253914101787 0 0 0
142 1 15.587678778108351 1.7999105088949094 3.1043466666666744 0 0 0
143 2 17.14644673869127 0.8999552214354393 4.663253914101766 0 0 0
144 2 20.26398265985707 0.8999552214354354 4.663253914101762 0 0 0
145 1 18.7052146992742 1.7999105088949294 3.1043466666666735 0 0 0
146 1 21.822750620439994 1.799910508894919 3.104346666666672 0 0 0
147 2 23.381518581022924 0.8999552214354692 4.663253914101787 0 0 0
148 1 24.940286541605804 1.799910508894921 3.1043466666666717 0 0 0
149 2 26.49905450218876 0.8999552214354269 4.66325391410175 0 0 0
150 1 28.057822462771686 1.7999105088949257 3.104346666666668 0 0 0
151 2 29.616590423354623 0.8999552214354489 4.6632539141017695 0 0 0
152 1 31.17535838393749 1.799910508894924 3.1043466666666704 0 0 0
153 2 32.73412634452045 0.899955221435448 4.663253914101773 0 0 0
154 2 35.851662265686365 0.89995522143545 4.663253914101764 0 0 0
155 1 34.29289430510337 1.7999105088949237 3.104346666666664 0 0 0
156 1 37.41043022626926 1.799910508894927 3.1043466666666673 0 0 0
390 2 38.96919818685223 0.8999552214354919 4.663253914101816 0 0 0
157 1 1.5587671328619581 4.499776160640241 3.1043466666666855 0 0 0
158 1 4.676303054027836 4.499776160640317 3.1043466666666575 0 0 0
159 2 3.1175350934452313 3.599820873180834 4.663253914102025 0 0 0
160 1 7.793838975193777 4.499776160640324 3.1043466666666606 0 0 0
161 2 6.235071014610745 3.5998208731808616 4.663253914101748 0 0 0
162 2 9.352606935776762 3.5998208731808634 4.66325391410178 0 0 0
163 1 10.911374896359662 4.499776160640343 3.1043466666666695 0 0 0
164 2 12.470142856942498 3.5998208731808377 4.6632539141018015 0 0 0
165 1 14.028910817525379 4.499776160640324 3.1043466666666775 0 0 0
166 2 15.587678778108302 3.5998208731808514 4.663253914101789 0 0 0
167 1 17.146446738691264 4.499776160640328 3.104346666666678 0 0 0
168 1 20.26398265985708 4.499776160640324 3.1043466666666646 0 0 0
169 2 18.7052146992742 3.5998208731808496 4.663253914101793 0 0 0
170 1 23.381518581022878 4.499776160640319 3.104346666666669 0 0 0
171 2 21.82275062044002 3.5998208731808514 4.663253914101785 0 0 0
172 2 24.940286541605875 3.5998208731808576 4.663253914101791 0 0 0
173 1 26.499054502188763 4.499776160640317 3.1043466666666744 0 0 0
174 2 28.057822462771625 3.599820873180859 4.663253914101797 0 0 0
175 1 29.616590423354626 4.499776160640322 3.1043466666666717 0 0 0
176 2 31.17535838393755 3.599820873180859 4.66325391410179 0 0 0
177 1 32.734126344520426 4.49977616064033 3.1043466666666677 0 0 0
178 1 35.85166226568633 4.499776160640334 3.104346666666665 0 0 0
179 2 34.2928943051034 3.599820873180857 4.663253914101775 0 0 0
180 1 38.96919818685213 4.49977616064031 3.104346666666676 0 0 0
181 2 37.41043022626926 3.5998208731808696 4.6632539141017855 0 0 0
182 2 1.5587671328619557 6.299686524926478 4.663253914101595 0 0 0
183 2 4.676303054028021 6.299686524926214 4.663253914101836 0 0 0
184 1 3.1175350934451393 7.199641812385748 3.104346666666717 0 0 0
185 1 6.23507101461082 7.199641812385736 3.104346666666657 0 0 0
186 2 7.793838975193704 6.299686524926294 4.663253914101773 0 0 0
187 1 9.352606935776643 7.19964181238572 3.104346666666667 0 0 0
188 2 10.911374896359577 6.299686524926262 4.663253914101796 0 0 0
189 1 12.470142856942479 7.199641812385702 3.1043466666666744 0 0 0
190 2 14.028910817525361 6.2996865249262255 4.663253914101803 0 0 0
191 1 15.587678778108332 7.199641812385678 3.10434666666667 0 0 0
192 2 17.146446738691242 6.299686524926238 4.663253914101785 0 0 0
193 2 20.263982659857117 6.299686524926238 4.663253914101781 0 0 0
194 1 18.7052146992742 7.1996418123857095 3.1043466666666655 0 0 0
195 1 21.822750620439976 7.199641812385696 3.1043466666666744 0 0 0
196 2 23.381518581022963 6.299686524926234 4.663253914101784 0 0 0
197 1 24.940286541605843 7.199641812385695 3.1043466666666677 0 0 0
198 2 26.499054502188724 6.2996865249262255 4.6632539141017855 0 0 0
199 1 28.0578224627717 7.199641812385682 3.10434666666667 0 0 0
200 2 29.61659042335461 6.299686524926237 4.663253914101803 0 0 0
201 1 31.17535838393755 7.199641812385709 3.104346666666679 0 0 0
202 2 32.734126344520426 6.299686524926253 4.66325391410179 0 0 0
203 2 35.85166226568633 6.299686524926246 4.6632539141017935 0 0 0
204 1 34.29289430510341 7.199641812385686 3.104346666666667 0 0 0
205 1 37.41043022626926 7.199641812385688 3.1043466666666775 0 0 0
387 2 38.96919818685213 6.299686524926258 4.663253914101782 0 0 0
206 1 1.5587671328616386 9.899507464130737 3.104346666666435 0 0 0
207 1 4.676303054027804 9.899507464131098 3.1043466666667494 0 0 0
208 2 3.1175350934452286 8.999552176671529 4.663253914101955 0 0 0
209 1 7.7938389751937125 9.899507464131062 3.1043466666666757 0 0 0
210 2 6.235071014610745 8.99955217667163 4.663253914101784 0 0 0
211 2 9.352606935776688 8.999552176671644 4.663253914101791 0 0 0
212 1 10.911374896359595 9.899507464131082 3.1043466666666744 0 0 0
213 2 12.470142856942466 8.999552176671616 4.663253914101797 0 0 0
214 1 14.028910817525341 9.899507464131078 3.104346666666671 0 0 0
215 2 15.587678778108332 8.999552176671633 4.663253914101786 0 0 0
216 1 17.14644673869122 9.899507464131084 3.1043466666666766 0 0 0
217 1 20.26398265985713 9.899507464131075 3.104346666666665 0 0 0
218 2 18.7052146992742 8.999552176671616 4.66325391410179 0 0 0
219 1 23.381518581022924 9.899507464131087 3.1043466666666664 0 0 0
220 2 21.82275062044 8.999552176671626 4.663253914101781 0 0 0
221 2 24.940286541605825 8.999552176671608 4.663253914101799 0 0 0
222 1 26.499054502188738 9.89950746413107 3.1043466666666673 0 0 0
223 2 28.057822462771668 8.999552176671623 4.663253914101778 0 0 0
224 1 29.616590423354587 9.89950746413108 3.104346666666675 0 0 0
225 2 31.175358383937525 8.999552176671605 4.663253914101798 0 0 0
226 1 32.73412634452045 9.899507464131071 3.104346666666664 0 0 0
227 1 35.85166226568631 9.899507464131068 3.1043466666666775 0 0 0
228 2 34.292894305103424 8.999552176671616 4.663253914101785 0 0 0
229 1 38.969198186852154 9.89950746413105 3.104346666666675 0 0 0
230 2 37.41043022626926 8.999552176671623 4.663253914101801 0 0 0
231 2 1.558767132861538 11.6994178284174 4.663253914101279 0 0 0
232 2 4.67630305402795 11.699417828417001 4.663253914101871 0 0 0
233 1 3.117535093444988 12.599373115876563 3.1043466666667268 0 0 0
234 1 6.23507101461076 12.599373115876427 3.104346666666682 0 0 0
235 2 7.793838975193679 11.699417828416982 4.663253914101782 0 0 0
236 1 9.352606935776615 12.599373115876434 3.1043466666666784 0 0 0
237 2 10.911374896359556 11.699417828417024 4.6632539141017935 0 0 0
238 1 12.470142856942449 12.599373115876485 3.1043466666666664 0 0 0
239 2 14.02891081752535 11.699417828417015 4.663253914101791 0 0 0
240 1 15.587678778108293 12.599373115876467 3.104346666666672 0 0 0
241 2 17.14644673869127 11.699417828417003 4.663253914101792 0 0 0
242 2 20.263982659857078 11.699417828417031 4.663253914101783 0 0 0
243 1 18.7052146992742 12.599373115876467 3.104346666666668 0 0 0
244 1 21.82275062043996 12.599373115876508 3.104346666666672 0 0 0
245 2 23.38151858102292 11.69941782841701 4.663253914101783 0 0 0
246 1 24.9402865416058 12.599373115876492 3.1043466666666695 0 0 0
247 2 26.49905450218876 11.69941782841699 4.663253914101794 0 0 0
248 1 28.057822462771707 12.5993731158765 3.104346666666672 0 0 0
249 2 29.616590423354623 11.699417828417003 4.663253914101797 0 0 0
250 1 31.17535838393749 12.599373115876437 3.1043466666666713 0 0 0
251 2 32.734126344520426 11.699417828417015 4.66325391410179 0 0 0
252 2 35.851662265686365 11.699417828417003 4.663253914101787 0 0 0
253 1 34.2928943051034 12.599373115876471 3.1043466666666766 0 0 0
254 1 37.41043022626923 12.599373115876492 3.10434666666667 0 0 0
385 2 38.969198186852154 11.699417828417024 4.663253914101787 0 0 0
255 1 1.5587671328620885 15.299238767621594 3.1043466666666806 0 0 0
256 1 4.676303054027824 15.299238767621826 3.104346666666661 0 0 0
257 2 3.1175350934452384 14.399283480162413 4.663253914102017 0 0 0
258 1 7.7938389751937285 15.299238767621786 3.104346666666673 0 0 0
259 2 6.235071014610687 14.399283480162373 4.6632539141017535 0 0 0
260 2 9.352606935776732 14.399283480162376 4.663253914101796 0 0 0
261 1 10.911374896359607 15.29923876762182 3.104346666666676 0 0 0
262 2 12.470142856942488 14.399283480162378 4.663253914101789 0 0 0
263 1 14.02891081752537 15.29923876762185 3.1043466666666717 0 0 0
264 2 15.587678778108321 14.399283480162413 4.6632539141017855 0 0 0
265 1 17.146446738691232 15.299238767621816 3.104346666666676 0 0 0
266 1 20.263982659857156 15.29923876762182 3.1043466666666677 0 0 0
267 2 18.70521469927421 14.399283480162406 4.663253914101796 0 0 0
268 1 23.38151858102294 15.299238767621809 3.104346666666669 0 0 0
269 2 21.82275062043998 14.39928348016239 4.6632539141017855 0 0 0
270 2 24.940286541605865 14.399283480162405 4.663253914101769 0 0 0
271 1 26.499054502188784 15.299238767621802 3.1043466666666664 0 0 0
272 2 28.057822462771643 14.399283480162397 4.663253914101784 0 0 0
273 1 29.616590423354648 15.299238767621826 3.104346666666672 0 0 0
274 2 31.17535838393751 14.399283480162406 4.663253914101782 0 0 0
275 1 32.73412634452042 15.299238767621816 3.1043466666666695 0 0 0
276 1 35.85166226568637 15.299238767621834 3.104346666666672 0 0 0
277 2 34.2928943051034 14.399283480162406 4.663253914101793 0 0 0
278 1 38.9691981868522 15.299238767621816 3.104346666666673 0 0 0
279 2 37.410430226269185 14.399283480162406 4.66325391410178 0 0 0
280 2 1.5587671328621528 17.099149131908064 4.663253914101583 0 0 0
281 2 4.676303054027969 17.099149131907737 4.663253914101823 0 0 0
282 1 3.1175350934452513 17.99910441936729 3.104346666666649 0 0 0
283 1 6.2350710146108215 17.999104419367278 3.1043466666666593 0 0 0
284 2 7.793838975193728 17.09914913190779 4.663253914101778 0 0 0
285 1 9.352606935776679 17.999104419367196 3.104346666666672 0 0 0
286 2 10.911374896359595 17.09914913190779 4.663253914101808 0 0 0
287 1 12.470142856942529 17.999104419367235 3.10434666666667 0 0 0
288 2 14.02891081752535 17.099149131907776 4.66325391410179 0 0 0
289 1 15.587678778108343 17.999104419367242 3.1043466666666664 0 0 0
290 2 17.146446738691257 17.099149131907822 4.6632539141017855 0 0 0
291 2 20.263982659857092 17.09914913190779 4.663253914101797 0 0 0
292 1 18.705214699274194 17.999104419367242 3.104346666666667 0 0 0
293 1 21.82275062043996 17.999104419367242 3.1043466666666633 0 0 0
294 2 23.38151858102292 17.099149131907797 4.6632539141017935 0 0 0
295 1 24.940286541605804 17.999104419367214 3.104346666666668 0 0 0
296 2 26.49905450218876 17.09914913190779 4.6632539141018094 0 0 0
297 1 28.0578224627717 17.999104419367235 3.104346666666671 0 0 0
298 2 29.61659042335461 17.09914913190779 4.663253914101807 0 0 0
299 1 31.175358383937525 17.999104419367228 3.1043466666666775 0 0 0
300 2 32.73412634452046 17.099149131907804 4.663253914101787 0 0 0
301 2 35.85166226568635 17.09914913190776 4.663253914101803 0 0 0
302 1 34.29289430510337 17.999104419367242 3.104346666666671 0 0 0
303 1 37.41043022626926 17.999104419367214 3.1043466666666695 0 0 0
383 2 38.969198186852175 17.09914913190779 4.663253914101791 0 0 0
304 1 1.5587671328615234 20.69897007111238 3.1043466666667467 0 0 0
305 1 4.6763030540277795 20.698970071112672 3.1043466666666566 0 0 0
306 2 3.1175350934448884 19.7990147836531 4.663253914101823 0 0 0
307 1 7.7938389751936885 20.698970071112566 3.1043466666666695 0 0 0
308 2 6.2350710146106625 19.79901478365313 4.663253914101739 0 0 0
309 2 9.352606935776722 19.79901478365319 4.663253914101776 0 0 0
310 1 10.911374896359598 20.69897007111264 3.1043466666666713 0 0 0
311 2 12.470142856942498 19.79901478365314 4.663253914101796 0 0 0
312 1 14.02891081752537 20.698970071112576 3.104346666666662 0 0 0
313 2 15.58767877810831 19.799014783653156 4.663253914101774 0 0 0
314 1 17.146446738691253 20.698970071112576 3.1043466666666713 0 0 0
315 1 20.263982659857117 20.69897007111255 3.1043466666666713 0 0 0
316 2 18.70521469927418 19.79901478365314 4.663253914101795 0 0 0
317 1 23.3815185810229 20.698970071112598 3.1043466666666713 0 0 0
318 2 21.822750620439983 19.799014783653135 4.6632539141017935 0 0 0
319 2 24.94028654160586 19.799014783653178 4.6632539141017775 0 0 0
320 1 26.499054502188706 20.698970071112605 3.1043466666666686 0 0 0
321 2 28.057822462771686 19.799014783653153 4.663253914101772 0 0 0
322 1 29.61659042335455 20.698970071112562 3.1043466666666664 0 0 0
323 2 31.175358383937546 19.79901478365317 4.663253914101797 0 0 0
324 1 32.734126344520426 20.698970071112566 3.1043466666666615 0 0 0
325 1 35.851662265686386 20.698970071112612 3.1043466666666673 0 0 0
326 2 34.29289430510339 19.799014783653114 4.663253914101791 0 0 0
327 1 38.96919818685213 20.698970071112623 3.1043466666666673 0 0 0
328 2 37.41043022626926 19.79901478365314 4.6632539141017695 0 0 0
329 2 1.5587671328620414 22.49888043539859 4.663253914101571 0 0 0
330 2 4.676303054027968 22.498880435398526 4.663253914101808 0 0 0
331 1 3.1175350934451367 23.398835722858028 3.1043466666666473 0 0 0
332 1 6.23507101461084 23.398835722858003 3.10434666666667 0 0 0
333 2 7.793838975193747 22.498880435398583 4.663253914101778 0 0 0
334 1 9.352606935776718 23.398835722857992 3.1043466666666677 0 0 0
335 2 10.911374896359627 22.49888043539852 4.6632539141018094 0 0 0
336 1 12.47014285694249 23.39883572285802 3.1043466666666673 0 0 0
337 2 14.02891081752538 22.498880435398547 4.663253914101801 0 0 0
338 1 15.58767877810834 23.39883572285792 3.104346666666678 0 0 0
339 2 17.146446738691242 22.498880435398572 4.663253914101792 0 0 0
340 2 20.263982659857074 22.49888043539853 4.66325391410178 0 0 0
341 1 18.7052146992742 23.398835722857953 3.104346666666665 0 0 0
342 1 21.822750620439958 23.398835722857964 3.1043466666666646 0 0 0
343 2 23.381518581022977 22.498880435398515 4.663253914101799 0 0 0
344 1 24.940286541605857 23.398835722857932 3.1043466666666664 0 0 0
345 2 26.499054502188724 22.49888043539853 4.6632539141018015 0 0 0
346 1 28.0578224627717 23.398835722857964 3.104346666666668 0 0 0
347 2 29.616590423354626 22.498880435398476 4.66325391410181 0 0 0
348 1 31.175358383937585 23.398835722858013 3.1043466666666792 0 0 0
349 2 32.734126344520405 22.49888043539857 4.663253914101807 0 0 0
350 2 35.85166226568633 22.498880435398505 4.663253914101808 0 0 0
351 1 34.292894305103424 23.398835722857953 3.1043466666666775 0 0 0
352 1 37.410430226269284 23.398835722857953 3.1043466666666695 0 0 0
381 2 38.96919818685211 22.498880435398547 4.663253914101785 0 0 0
353 1 1.55876713286179 26.09870137460319 3.104346666666679 0 0 0
354 1 4.676303054027622 26.098701374603458 3.104346666666695 0 0 0
355 2 3.1175350934448707 25.198746087143853 4.663253914101922 0 0 0
356 1 7.793838975193658 26.098701374603316 3.1043466666666757 0 0 0
357 2 6.235071014610578 25.198746087143956 4.6632539141017455 0 0 0
358 2 9.352606935776722 25.198746087143924 4.6632539141017775 0 0 0
359 1 10.911374896359598 26.098701374603383 3.1043466666666775 0 0 0
360 2 12.470142856942507 25.19874608714385 4.6632539141018094 0 0 0
361 1 14.02891081752538 26.098701374603316 3.1043466666666744 0 0 0
362 2 15.587678778108351 25.198746087143896 4.663253914101788 0 0 0
363 1 17.146446738691232 26.09870137460327 3.1043466666666792 0 0 0
364 1 20.26398265985704 26.098701374603337 3.1043466666666775 0 0 0
365 2 18.705214699274173 25.19874608714393 4.6632539141018 0 0 0
366 1 23.38151858102294 26.098701374603273 3.104346666666676 0 0 0
367 2 21.822750620439983 25.198746087143867 4.663253914101801 0 0 0
368 2 24.940286541605875 25.198746087143892 4.663253914101791 0 0 0
369 1 26.499054502188784 26.098701374603316 3.1043466666666686 0 0 0
370 2 28.057822462771625 25.198746087143906 4.663253914101789 0 0 0
371 1 29.61659042335461 26.09870137460341 3.1043466666666664 0 0 0
372 2 31.17535838393749 25.198746087143874 4.66325391410178 0 0 0
373 1 32.73412634452044 26.098701374603316 3.1043466666666686 0 0 0
374 1 35.85166226568635 26.098701374603273 3.104346666666675 0 0 0
375 2 34.29289430510341 25.198746087143903 4.663253914101785 0 0 0
376 1 38.96919818685217 26.098701374603362 3.1043466666666655 0 0 0
377 2 37.41043022626923 25.198746087143903 4.6632539141017855 0 0 0
378 2 1.5587671328623078 27.898611738889187 4.663253914101715 0 0 0
379 2 4.676303054027831 27.898611738889237 4.663253914101849 0 0 0
382 2 7.7938389751936334 27.89861173888936 4.663253914101776 0 0 0
384 2 10.911374896359568 27.898611738889223 4.663253914101793 0 0 0
386 2 14.028910817525379 27.898611738889212 4.66325391410179 0 0 0
388 2 17.146446738691292 27.89861173888923 4.663253914101806 0 0 0
389 2 20.26398265985708 27.898611738889215 4.66325391410179 0 0 0
392 2 23.381518581022924 27.8986117388892 4.66325391410178 0 0 0
394 2 26.499054502188745 27.89861173888925 4.663253914101795 0 0 0
396 2 29.616590423354587 27.898611738889215 4.6632539141017935 0 0 0
398 2 32.73412634452047 27.898611738889265 4.663253914101785 0 0 0
399 2 35.85166226568633 27.89861173888925 4.663253914101808 0 0 0
380 2 38.9691981868522 27.89861173888924 4.663253914101768 0 0 0
402 3 3.117535093444963 30.59847739063452 1.545439419231396 0 0 0
403 3 6.2350710146105675 30.598477390634695 1.5454394192315797 0 0 0
404 3 9.352606935776649 30.598477390634653 1.5454394192315555 0 0 0
405 3 12.470142856942488 30.5984773906346 1.5454394192315413 0 0 0
406 3 15.587678778108332 30.598477390634613 1.5454394192315548 0 0 0
407 3 18.7052146992742 30.598477390634613 1.5454394192315435 0 0 0
408 3 21.82275062044 30.598477390634656 1.5454394192315541 0 0 0
409 3 24.940286541605865 30.59847739063464 1.545439419231544 0 0 0
410 3 28.057822462771625 30.598477390634624 1.5454394192315597 0 0 0
411 3 31.175358383937528 30.5984773906346 1.5454394192315584 0 0 0
412 3 34.292894305103424 30.598477390634617 1.5454394192315457 0 0 0
413 3 37.41043022626923 30.59847739063463 1.54543941923156 0 0 0
414 3 1.5587671328618091 33.298343042380296 1.545439419231836 0 0 0
415 3 4.676303054027843 33.29834304238006 1.545439419231487 0 0 0
416 3 7.793838975193574 33.298343042380125 1.5454394192315564 0 0 0
417 3 10.911374896359524 33.29834304238001 1.5454394192315495 0 0 0
418 3 14.02891081752537 33.298343042380026 1.5454394192315695 0 0 0
419 3 17.146446738691242 33.29834304238004 1.545439419231555 0 0 0
420 3 20.26398265985713 33.298343042380004 1.5454394192315655 0 0 0
421 3 23.3815185810229 33.29834304238004 1.545439419231552 0 0 0
422 3 26.499054502188724 33.29834304238004 1.5454394192315566 0 0 0
423 3 29.61659042335461 33.29834304238007 1.5454394192315501 0 0 0
424 3 32.734126344520426 33.29834304238002 1.5454394192315604 0 0 0
425 3 35.85166226568635 33.29834304238007 1.5454394192315668 0 0 0
767 3 38.96919818685219 33.29834304238008 1.5454394192315595 0 0 0
426 3 3.1175350934449404 35.998208694125424 1.5454394192314171 0 0 0
427 3 6.235071014610503 35.998208694125466 1.545439419231563 0 0 0
428 3 9.352606935776592 35.99820869412547 1.5454394192315655 0 0 0
429 3 12.47014285694246 35.99820869412539 1.5454394192315533 0 0 0
430 3 15.587678778108328 35.99820869412539 1.5454394192315573 0 0 0
431 3 18.7052146992742 35.9982086941254 1.5454394192315604 0 0 0
432 3 21.82275062044004 35.99820869412539 1.5454394192315455 0 0 0
433 3 24.940286541605804 35.99820869412546 1.545439419231554 0 0 0
434 3 28.057822462771703 35.99820869412536 1.5454394192315568 0 0 0
435 3 31.17535838393749 35.998208694125424 1.5454394192315801 0 0 0
436 3 34.2928943051034 35.99820869412541 1.5454394192315546 0 0 0
437 3 37.41043022626926 35.99820869412533 1.5454394192315544 0 0 0
438 3 1.5587671328619874 38.69807434587096 1.5454394192316359 0 0 0
439 3 4.6763030540277395 38.698074345870744 1.5454394192314862 0 0 0
440 3 7.793838975193534 38.698074345870815 1.5454394192315581 0 0 0
441 3 10.911374896359508 38.69807434587075 1.5454394192315666 0 0 0
442 3 14.028910817525377 38.698074345870815 1.5454394192315584 0 0 0