LAMMPS data file via write_data, version 2 Aug 2023, timestep = 4135, units = metal

37792 atoms
3 atom types

0 1247.0153591347664 xlo xhi
0 86.39579318291632 ylo yhi
0 50 zlo zhi
0 0 0 xy xz yz

Masses

1 95.94
2 32.065
3 32.065

Atoms # atomic

1 3 1.5587683711938012 0.8999560864364257 1.545439578391722 0 0 0
2 3 4.67630676903245 0.8999560864376014 1.5454395783931205 0 0 0
3 3 7.793845166870639 0.8999560864377013 1.5454395783931438 0 0 0
4 3 10.911383564707725 0.8999560864371359 1.5454395783931876 0 0 0
5 3 14.02892196254382 0.8999560864373042 1.5454395783930726 0 0 0
6 3 17.146460360380317 0.8999560864372549 1.5454395783931896 0 0 0
7 3 20.26399875821765 0.8999560864374986 1.5454395783932515 0 0 0
8 3 23.381537156055128 0.8999560864373847 1.5454395783931996 0 0 0
9 3 26.499075553892155 0.8999560864371915 1.545439578393207 0 0 0
10 3 29.616613951728922 0.8999560864372451 1.545439578393245 0 0 0
11 3 32.73415234956598 0.8999560864372766 1.5454395783931418 0 0 0
12 3 35.85169074740268 0.8999560864373535 1.545439578393092 0 0 0
401 3 38.96922914523952 0.8999560864372073 1.545439578393185 0 0 0
13 3 3.117537570111605 3.599824623403686 1.5454395783936838 0 0 0
14 3 6.235075967952233 3.5998246234037685 1.54543957839318 0 0 0
15 3 9.352614365789535 3.5998246234035234 1.5454395783930863 0 0 0
16 3 12.470152763625762 3.599824623403479 1.5454395783930086 0 0 0
17 3 15.587691161462025 3.599824623403467 1.545439578393124 0 0 0
18 3 18.7052295592989 3.599824623403659 1.5454395783932047 0 0 0
19 3 21.82276795713658 3.599824623403693 1.5454395783931334 0 0 0
20 3 24.94030635497366 3.5998246234035287 1.5454395783931023 0 0 0
21 3 28.05784475281053 3.599824623403573 1.5454395783931771 0 0 0
22 3 31.175383150647495 3.599824623403573 1.5454395783931096 0 0 0
23 3 34.29292154848427 3.5998246234035474 1.5454395783931336 0 0 0
24 3 37.410459946321126 3.599824623403575 1.5454395783931634 0 0 0
25 3 1.558768371194027 6.299693160368908 1.5454395783928718 0 0 0
26 3 4.676306769033253 6.29969316036972 1.5454395783932242 0 0 0
27 3 7.793845166870677 6.299693160370017 1.5454395783930832 0 0 0
28 3 10.911383564707714 6.299693160369483 1.545439578393083 0 0 0
29 3 14.028921962543869 6.299693160369544 1.5454395783930543 0 0 0
30 3 17.14646036038029 6.2996931603696025 1.5454395783931074 0 0 0
31 3 20.26399875821769 6.2996931603697774 1.545439578393233 0 0 0
32 3 23.38153715605511 6.299693160369691 1.545439578393148 0 0 0
33 3 26.499075553892155 6.299693160369655 1.54543957839311 0 0 0
34 3 29.616613951728922 6.299693160369685 1.545439578393135 0 0 0
35 3 32.73415234956588 6.299693160369661 1.54543957839306 0 0 0
36 3 35.85169074740278 6.299693160369661 1.5454395783931032 0 0 0
400 3 38.9692291452396 6.299693160369606 1.5454395783931723 0 0 0
37 3 3.1175375701120696 8.999561697336238 1.5454395783936343 0 0 0
38 3 6.235075967952046 8.999561697336105 1.545439578393151 0 0 0
39 3 9.352614365789497 8.99956169733568 1.545439578393022 0 0 0
40 3 12.470152763625771 8.99956169733563 1.5454395783930477 0 0 0
41 3 15.587691161462043 8.999561697335686 1.5454395783931034 0 0 0
42 3 18.70522955929898 8.99956169733581 1.5454395783931598 0 0 0
43 3 21.82276795713651 8.999561697335825 1.5454395783931723 0 0 0
44 3 24.940306354973664 8.999561697335725 1.5454395783931392 0 0 0
45 3 28.05784475281053 8.999561697335748 1.5454395783931245 0 0 0
46 3 31.175383150647473 8.99956169733571 1.5454395783930945 0 0 0
47 3 34.29292154848436 8.999561697335789 1.5454395783931152 0 0 0
48 3 37.41045994632118 8.999561697335745 1.5454395783931418 0 0 0
49 3 1.558768371194139 11.699430234300856 1.5454395783914558 0 0 0
50 3 4.676306769032519 11.699430234302227 1.5454395783932875 0 0 0
51 3 7.793845166870515 11.699430234302282 1.5454395783931199 0 0 0
52 3 10.911383564707664 11.69943023430176 1.5454395783931199 0 0 0
53 3 14.028921962543869 11.699430234301843 1.5454395783930552 0 0 0
54 3 17.146460360380267 11.699430234301905 1.5454395783931512 0 0 0
55 3 20.263998758217728 11.699430234302042 1.545439578393207 0 0 0
56 3 23.381537156055153 11.69943023430194 1.545439578393144 0 0 0
57 3 26.499075553892155 11.699430234301925 1.5454395783931103 0 0 0
58 3 29.616613951728965 11.699430234301953 1.5454395783931758 0 0 0
59 3 32.73415234956578 11.699430234301872 1.5454395783931008 0 0 0
60 3 35.851690747402934 11.699430234301898 1.5454395783931292 0 0 0
397 3 38.969229145239666 11.699430234301891 1.5454395783931323 0 0 0
61 3 3.1175375701113417 14.399298771268366 1.5454395783936068 0 0 0
62 3 6.235075967951934 14.399298771268414 1.5454395783931707 0 0 0
63 3 9.352614365789453 14.399298771267988 1.5454395783930452 0 0 0
64 3 12.470152763625762 14.399298771267983 1.545439578393053 0 0 0
65 3 15.587691161461976 14.399298771267997 1.5454395783930759 0 0 0
66 3 18.705229559298946 14.399298771268091 1.5454395783932025 0 0 0
67 3 21.82276795713648 14.39929877126811 1.5454395783931891 0 0 0
68 3 24.940306354973586 14.399298771268045 1.5454395783931196 0 0 0
69 3 28.05784475281053 14.399298771268045 1.5454395783931252 0 0 0
70 3 31.175383150647512 14.399298771268064 1.5454395783930965 0 0 0
71 3 34.29292154848437 14.39929877126799 1.545439578393169 0 0 0
72 3 37.41045994632118 14.399298771268063 1.5454395783930954 0 0 0
73 3 1.5587683711936495 17.099167308232577 1.545439578391729 0 0 0
74 3 4.676306769032491 17.09916730823448 1.5454395783933381 0 0 0
75 3 7.793845166870611 17.09916730823448 1.5454395783930628 0 0 0
76 3 10.911383564707675 17.099167308234 1.5454395783930754 0 0 0
77 3 14.028921962543896 17.09916730823409 1.5454395783930435 0 0 0
78 3 17.14646036038029 17.09916730823411 1.5454395783931263 0 0 0
79 3 20.263998758217728 17.09916730823431 1.545439578393217 0 0 0
80 3 23.381537156055103 17.09916730823411 1.5454395783931505 0 0 0
81 3 26.499075553892155 17.099167308234282 1.5454395783931536 0 0 0
82 3 29.61661395172899 17.099167308234186 1.5454395783931572 0 0 0
83 3 32.734152349565846 17.099167308234154 1.5454395783931043 0 0 0
84 3 35.851690747402834 17.09916730823426 1.5454395783931518 0 0 0
395 3 38.969229145239666 17.099167308234165 1.5454395783930983 0 0 0
85 3 3.1175375701119505 19.799035845200216 1.5454395783938508 0 0 0
86 3 6.235075967952103 19.7990358452006 1.5454395783931838 0 0 0
87 3 9.352614365789528 19.799035845200187 1.545439578393056 0 0 0
88 3 12.470152763625801 19.79903584520023 1.5454395783930683 0 0 0
89 3 15.587691161462033 19.799035845200244 1.545439578393116 0 0 0
90 3 18.70522955929898 19.799035845200393 1.5454395783931918 0 0 0
91 3 21.82276795713652 19.799035845200365 1.5454395783931683 0 0 0
92 3 24.940306354973725 19.799035845200365 1.5454395783931474 0 0 0
93 3 28.057844752810553 19.799035845200326 1.5454395783931119 0 0 0
94 3 31.175383150647413 19.79903584520032 1.5454395783930905 0 0 0
95 3 34.29292154848424 19.799035845200386 1.54543957839313 0 0 0
96 3 37.41045994632136 19.79903584520034 1.5454395783931432 0 0 0
97 3 1.5587683711945 22.498904382165605 1.545439578393061 0 0 0
98 3 4.676306769033224 22.498904382166867 1.545439578393248 0 0 0
99 3 7.793845166870715 22.498904382166902 1.5454395783931154 0 0 0
100 3 10.911383564707714 22.49890438216636 1.5454395783931378 0 0 0
101 3 14.028921962543912 22.498904382166447 1.545439578393132 0 0 0
102 3 17.146460360380264 22.498904382166536 1.5454395783931503 0 0 0
103 3 20.263998758217667 22.498904382166675 1.5454395783932293 0 0 0
104 3 23.381537156055103 22.498904382166497 1.545439578393151 0 0 0
105 3 26.499075553892077 22.498904382166543 1.5454395783931592 0 0 0
106 3 29.616613951728965 22.49890438216655 1.5454395783931005 0 0 0
107 3 32.73415234956598 22.49890438216658 1.5454395783931496 0 0 0
108 3 35.85169074740278 22.498904382166543 1.545439578393197 0 0 0
393 3 38.969229145239666 22.49890438216658 1.545439578393195 0 0 0
109 3 3.1175375701115753 25.198772919133457 1.5454395783937298 0 0 0
110 3 6.235075967952047 25.19877291913311 1.5454395783932589 0 0 0
111 3 9.352614365789558 25.198772919132725 1.5454395783930337 0 0 0
112 3 12.470152763625764 25.1987729191326 1.545439578393028 0 0 0
113 3 15.587691161461986 25.19877291913263 1.545439578393054 0 0 0
114 3 18.70522955929893 25.198772919132754 1.5454395783932124 0 0 0
115 3 21.82276795713651 25.198772919132676 1.5454395783931754 0 0 0
116 3 24.940306354973664 25.198772919132683 1.5454395783931518 0 0 0
117 3 28.05784475281053 25.198772919132754 1.5454395783931059 0 0 0
118 3 31.175383150647374 25.198772919132676 1.5454395783931787 0 0 0
119 3 34.2929215484842 25.198772919132725 1.5454395783931607 0 0 0
120 3 37.410459946321225 25.19877291913262 1.545439578393146 0 0 0
121 3 1.5587683711933726 27.89864145609827 1.5454395783916353 0 0 0
122 3 4.67630676903231 27.89864145609921 1.5454395783933466 0 0 0
123 3 7.793845166870565 27.89864145609917 1.5454395783931623 0 0 0
124 3 10.911383564707656 27.898641456098616 1.5454395783930999 0 0 0
125 3 14.028921962543919 27.898641456098744 1.5454395783930592 0 0 0
126 3 17.146460360380313 27.89864145609884 1.5454395783931274 0 0 0
127 3 20.26399875821775 27.898641456098943 1.5454395783931751 0 0 0
128 3 23.381537156055153 27.898641456098865 1.5454395783931862 0 0 0
129 3 26.499075553892155 27.898641456098847 1.5454395783931196 0 0 0
130 3 29.616613951728965 27.898641456098783 1.545439578393139 0 0 0
131 3 32.73415234956588 27.89864145609877 1.5454395783931103 0 0 0
132 3 35.85169074740278 27.898641456098893 1.5454395783931723 0 0 0
391 3 38.969229145239666 27.89864145609876 1.5454395783930885 0 0 0
133 2 1.558768371193749 0.8999560864364607 4.663253754941609 0 0 0
134 2 4.67630676903241 0.8999560864375186 4.6632537549401905 0 0 0
135 1 3.1175375701117716 1.7999126258514484 3.1043466666666575 0 0 0
136 1 6.235075967951599 1.7999126258525524 3.104346666666729 0 0 0
137 2 7.793845166870633 0.8999560864376576 4.663253754940309 0 0 0
138 1 9.352614365789334 1.7999126258525198 3.104346666666747 0 0 0
139 2 10.911383564707737 0.8999560864371513 4.663253754940329 0 0 0
140 1 12.470152763625762 1.7999126258525995 3.1043466666667188 0 0 0
141 2 14.028921962543826 0.899956086437309 4.663253754940353 0 0 0
142 1 15.587691161462043 1.7999126258524771 3.1043466666667108 0 0 0
143 2 17.146460360380313 0.8999560864372913 4.663253754940302 0 0 0
144 2 20.26399875821765 0.8999560864374946 4.663253754940177 0 0 0
145 1 18.70522955929898 1.7999126258524922 3.104346666666726 0 0 0
146 1 21.82276795713646 1.7999126258525533 3.104346666666738 0 0 0
147 2 23.381537156055153 0.8999560864373971 4.663253754940259 0 0 0
148 1 24.940306354973682 1.7999126258524907 3.1043466666667165 0 0 0
149 2 26.499075553892155 0.8999560864371495 4.663253754940263 0 0 0
150 1 28.057844752810492 1.7999126258524738 3.104346666666729 0 0 0
151 2 29.616613951728866 0.8999560864371905 4.663253754940198 0 0 0
152 1 31.175383150647374 1.7999126258524625 3.104346666666679 0 0 0
153 2 32.73415234956588 0.8999560864373012 4.6632537549402535 0 0 0
154 2 35.85169074740268 0.8999560864373689 4.6632537549402535 0 0 0
155 1 34.29292154848432 1.7999126258524867 3.1043466666666983 0 0 0
156 1 37.41045994632119 1.7999126258524558 3.104346666666741 0 0 0
390 2 38.969229145239616 0.8999560864372429 4.663253754940316 0 0 0
157 1 1.55876837119277 4.499781162819065 3.1043466666667108 0 0 0
158 1 4.676306769032637 4.499781162817916 3.104346666666725 0 0 0
159 2 3.1175375701116006 3.599824623403621 4.663253754939714 0 0 0
160 1 7.793845166871066 4.499781162818944 3.1043466666667228 0 0 0
161 2 6.235075967952223 3.5998246234037734 4.663253754940287 0 0 0
162 2 9.352614365789547 3.599824623403564 4.663253754940409 0 0 0
163 1 10.911383564707688 4.49978116281859 3.104346666666714 0 0 0
164 2 12.470152763625741 3.5998246234034688 4.663253754940407 0 0 0
165 1 14.028921962543857 4.499781162818683 3.104346666666702 0 0 0
166 2 15.587691161462004 3.599824623403489 4.663253754940277 0 0 0
167 1 17.146460360380324 4.499781162818686 3.104346666666716 0 0 0
168 1 20.26399875821769 4.499781162818598 3.1043466666667094 0 0 0
169 2 18.70522955929892 3.5998246234036433 4.663253754940269 0 0 0
170 1 23.381537156055067 4.49978116281866 3.1043466666667516 0 0 0
171 2 21.82276795713642 3.599824623403671 4.663253754940346 0 0 0
172 2 24.940306354973625 3.5998246234035287 4.663253754940348 0 0 0
173 1 26.499075553892094 4.499781162818683 3.1043466666666966 0 0 0
174 2 28.057844752810468 3.599824623403575 4.663253754940262 0 0 0
175 1 29.616613951728965 4.49978116281866 3.1043466666667356 0 0 0
176 2 31.175383150647512 3.599824623403593 4.663253754940319 0 0 0
177 1 32.734152349565846 4.499781162818664 3.104346666666712 0 0 0
178 1 35.85169074740266 4.499781162818679 3.1043466666667188 0 0 0
179 2 34.29292154848427 3.599824623403513 4.663253754940253 0 0 0
180 1 38.969229145239616 4.4997811628186275 3.104346666666743 0 0 0
181 2 37.410459946321126 3.5998246234035407 4.6632537549403015 0 0 0
182 2 1.5587683711940319 6.299693160368894 4.663253754940566 0 0 0
183 2 4.676306769033224 6.299693160369744 4.663253754940219 0 0 0
184 1 3.117537570112586 7.199649699784292 3.1043466666667077 0 0 0
185 1 6.235075967951938 7.199649699784949 3.10434666666672 0 0 0
186 2 7.793845166870679 6.299693160370021 4.663253754940348 0 0 0
187 1 9.352614365789314 7.19964969978473 3.1043466666666997 0 0 0
188 2 10.911383564707695 6.2996931603694915 4.663253754940343 0 0 0
189 1 12.470152763625723 7.199649699784772 3.1043466666667108 0 0 0
190 2 14.028921962543876 6.299693160369575 4.66325375494038 0 0 0
191 1 15.587691161462075 7.199649699784741 3.1043466666667108 0 0 0
192 2 17.14646036038029 6.299693160369586 4.663253754940335 0 0 0
193 2 20.26399875821765 6.299693160369794 4.663253754940253 0 0 0
194 1 18.705229559299 7.199649699784691 3.104346666666727 0 0 0
195 1 21.82276795713642 7.1996496997847625 3.104346666666727 0 0 0
196 2 23.38153715605509 6.299693160369709 4.663253754940327 0 0 0
197 1 24.94030635497366 7.199649699784706 3.1043466666667223 0 0 0
198 2 26.499075553892116 6.299693160369654 4.663253754940318 0 0 0
199 1 28.05784475281053 7.199649699784796 3.1043466666667174 0 0 0
200 2 29.61661395172896 6.299693160369709 4.6632537549403 0 0 0
201 1 31.175383150647473 7.199649699784739 3.1043466666667023 0 0 0
202 2 32.73415234956598 6.299693160369661 4.663253754940324 0 0 0
203 2 35.85169074740278 6.29969316036963 4.66325375494035 0 0 0
204 1 34.29292154848427 7.199649699784722 3.1043466666666872 0 0 0
205 1 37.41045994632108 7.1996496997847075 3.104346666666733 0 0 0
387 2 38.969229145239616 6.299693160369637 4.663253754940308 0 0 0
206 1 1.5587683711942344 9.899518236751797 3.104346666666714 0 0 0
207 1 4.676306769032531 9.899518236750433 3.104346666666685 0 0 0
208 2 3.117537570112094 8.999561697336238 4.663253754939772 0 0 0
209 1 7.793845166870957 9.899518236751149 3.104346666666708 0 0 0
210 2 6.235075967952032 8.999561697336109 4.663253754940236 0 0 0
211 2 9.352614365789472 8.999561697335693 4.663253754940358 0 0 0
212 1 10.91138356470766 9.899518236750831 3.104346666666709 0 0 0
213 2 12.470152763625771 8.99956169733567 4.6632537549403565 0 0 0
214 1 14.02892196254384 9.899518236750934 3.1043466666667086 0 0 0
215 2 15.587691161462033 8.999561697335663 4.663253754940326 0 0 0
216 1 17.1464603603803 9.899518236750831 3.1043466666667237 0 0 0
217 1 20.263998758217706 9.899518236750845 3.1043466666667023 0 0 0
218 2 18.70522955929898 8.999561697335821 4.663253754940282 0 0 0
219 1 23.381537156055103 9.899518236750842 3.1043466666667268 0 0 0
220 2 21.82276795713642 8.999561697335793 4.663253754940281 0 0 0
221 2 24.940306354973664 8.999561697335766 4.663253754940311 0 0 0
222 1 26.49907555389202 9.899518236750872 3.1043466666667148 0 0 0
223 2 28.05784475281053 8.999561697335745 4.663253754940317 0 0 0
224 1 29.616613951728965 9.899518236750868 3.1043466666667023 0 0 0
225 2 31.175383150647413 8.999561697335725 4.6632537549403175 0 0 0
226 1 32.734152349565846 9.899518236750879 3.104346666666723 0 0 0
227 1 35.85169074740278 9.899518236750879 3.1043466666666966 0 0 0
228 2 34.292921548484316 8.999561697335828 4.6632537549402935 0 0 0
229 1 38.969229145239666 9.899518236750842 3.104346666666706 0 0 0
230 2 37.41045994632118 8.999561697335759 4.66325375494029 0 0 0
231 2 1.5587683711941498 11.699430234300822 4.663253754941969 0 0 0
232 2 4.676306769032546 11.699430234302227 4.6632537549401345 0 0 0
233 1 3.1175375701117263 12.599386773716205 3.1043466666667396 0 0 0
234 1 6.235075967951589 12.59938677371718 3.1043466666666997 0 0 0
235 2 7.793845166870509 11.699430234302287 4.6632537549402935 0 0 0
236 1 9.35261436578926 12.599386773717002 3.104346666666712 0 0 0
237 2 10.911383564707668 11.69943023430176 4.663253754940301 0 0 0
238 1 12.470152763625753 12.59938677371705 3.1043466666667108 0 0 0
239 2 14.0289219625439 11.699430234301802 4.663253754940373 0 0 0
240 1 15.587691161462095 12.59938677371704 3.104346666666725 0 0 0
241 2 17.146460360380313 11.699430234301897 4.663253754940317 0 0 0
242 2 20.26399875821769 11.699430234302076 4.663253754940203 0 0 0
243 1 18.705229559299 12.599386773716954 3.104346666666722 0 0 0
244 1 21.82276795713651 12.599386773716954 3.104346666666722 0 0 0
245 2 23.381537156055153 11.699430234301925 4.663253754940272 0 0 0
246 1 24.9403063549737 12.599386773716986 3.1043466666667174 0 0 0
247 2 26.499075553892098 11.699430234301905 4.663253754940334 0 0 0
248 1 28.057844752810553 12.59938677371705 3.1043466666667316 0 0 0
249 2 29.616613951728965 11.699430234301973 4.6632537549402615 0 0 0
250 1 31.175383150647384 12.599386773717036 3.1043466666666997 0 0 0
251 2 32.73415234956578 11.699430234301877 4.663253754940343 0 0 0
252 2 35.851690747402934 11.699430234301898 4.663253754940285 0 0 0
253 1 34.29292154848427 12.599386773716844 3.1043466666666886 0 0 0
254 1 37.41045994632128 12.599386773716988 3.10434666666672 0 0 0
385 2 38.969229145239666 11.699430234301884 4.663253754940287 0 0 0
255 1 1.5587683711920213 15.299255310683503 3.1043466666667427 0 0 0
256 1 4.676306769032178 15.299255310682586 3.104346666666744 0 0 0
257 2 3.1175375701114154 14.399298771268302 4.663253754939858 0 0 0
258 1 7.7938451668709074 15.299255310683394 3.104346666666712 0 0 0
259 2 6.235075967951997 14.399298771268429 4.663253754940253 0 0 0
260 2 9.352614365789433 14.399298771267983 4.6632537549403645 0 0 0
261 1 10.911383564707657 15.299255310683085 3.1043466666667037 0 0 0
262 2 12.470152763625762 14.399298771267983 4.663253754940344 0 0 0
263 1 14.028921962543812 15.299255310683167 3.1043466666667108 0 0 0
264 2 15.587691161462033 14.399298771267983 4.663253754940346 0 0 0
265 1 17.146460360380324 15.299255310683167 3.104346666666718 0 0 0
266 1 20.263998758217706 15.29925531068307 3.1043466666667228 0 0 0
267 2 18.70522955929898 14.399298771268139 4.6632537549402535 0 0 0
268 1 23.381537156055053 15.299255310683133 3.1043466666667734 0 0 0
269 2 21.82276795713642 14.399298771268079 4.66325375494032 0 0 0
270 2 24.940306354973643 14.399298771268038 4.663253754940337 0 0 0
271 1 26.49907555389206 15.299255310683188 3.1043466666666886 0 0 0
272 2 28.05784475281053 14.39929877126811 4.663253754940269 0 0 0
273 1 29.616613951729022 15.299255310683119 3.1043466666667188 0 0 0
274 2 31.175383150647495 14.399298771268045 4.663253754940338 0 0 0
275 1 32.73415234956586 15.299255310683114 3.1043466666667023 0 0 0
276 1 35.85169074740275 15.29925531068321 3.104346666666726 0 0 0
277 2 34.29292154848437 14.399298771267949 4.663253754940242 0 0 0
278 1 38.9692291452396 15.299255310683199 3.104346666666722 0 0 0
279 2 37.41045994632118 14.399298771268043 4.663253754940334 0 0 0
280 2 1.558768371193652 17.099167308232673 4.66325375494176 0 0 0
281 2 4.676306769032526 17.09916730823448 4.663253754940154 0 0 0
282 1 3.1175375701115273 17.99912384764801 3.1043466666667383 0 0 0
283 1 6.235075967951689 17.99912384764942 3.1043466666666983 0 0 0
284 2 7.793845166870611 17.099167308234495 4.66325375494036 0 0 0
285 1 9.352614365789314 17.999123847649287 3.104346666666722 0 0 0
286 2 10.911383564707677 17.099167308234 4.663253754940347 0 0 0
287 1 12.470152763625741 17.999123847649333 3.1043466666666997 0 0 0
288 2 14.028921962543857 17.09916730823409 4.663253754940365 0 0 0
289 1 15.587691161462015 17.999123847649333 3.104346666666722 0 0 0
290 2 17.146460360380264 17.09916730823411 4.663253754940312 0 0 0
291 2 20.26399875821775 17.09916730823431 4.663253754940243 0 0 0
292 1 18.70522955929901 17.999123847649326 3.104346666666727 0 0 0
293 1 21.82276795713648 17.99912384764928 3.104346666666728 0 0 0
294 2 23.381537156055103 17.099167308234186 4.66325375494036 0 0 0
295 1 24.94030635497366 17.999123847649376 3.104346666666721 0 0 0
296 2 26.499075553892155 17.099167308234193 4.663253754940224 0 0 0
297 1 28.05784475281053 17.99912384764943 3.104346666666702 0 0 0
298 2 29.61661395172895 17.099167308234193 4.663253754940304 0 0 0
299 1 31.175383150647473 17.999123847649216 3.1043466666667334 0 0 0
300 2 32.73415234956588 17.099167308234097 4.663253754940363 0 0 0
301 2 35.851690747402834 17.099167308234207 4.663253754940265 0 0 0
302 1 34.292921548484344 17.99912384764936 3.1043466666667197 0 0 0
303 1 37.41045994632128 17.99912384764932 3.1043466666667108 0 0 0
383 2 38.969229145239666 17.09916730823418 4.663253754940331 0 0 0
304 1 1.5587683711940619 20.69899238461565 3.1043466666667565 0 0 0
305 1 4.676306769032538 20.698992384614822 3.1043466666667583 0 0 0
306 2 3.117537570111995 19.79903584520017 4.6632537549396655 0 0 0
307 1 7.793845166871035 20.698992384615696 3.1043466666666997 0 0 0
308 2 6.235075967952141 19.799035845200592 4.663253754940229 0 0 0
309 2 9.352614365789508 19.799035845200187 4.66325375494033 0 0 0
310 1 10.911383564707757 20.698992384615444 3.1043466666667276 0 0 0
311 2 12.470152763625762 19.79903584520023 4.663253754940367 0 0 0
312 1 14.02892196254385 20.69899238461562 3.1043466666667356 0 0 0
313 2 15.587691161462004 19.799035845200237 4.663253754940329 0 0 0
314 1 17.14646036038026 20.69899238461545 3.104346666666703 0 0 0
315 1 20.263998758217728 20.69899238461545 3.1043466666667254 0 0 0
316 2 18.70522955929887 19.79903584520034 4.663253754940254 0 0 0
317 1 23.38153715605511 20.698992384615554 3.1043466666667254 0 0 0
318 2 21.82276795713651 19.799035845200358 4.663253754940283 0 0 0
319 2 24.940306354973664 19.799035845200386 4.663253754940297 0 0 0
320 1 26.499075553892155 20.698992384615476 3.1043466666667414 0 0 0
321 2 28.057844752810592 19.799035845200414 4.663253754940275 0 0 0
322 1 29.616613951729004 20.69899238461547 3.104346666666681 0 0 0
323 2 31.175383150647413 19.79903584520027 4.66325375494031 0 0 0
324 1 32.73415234956588 20.698992384615533 3.104346666666733 0 0 0
325 1 35.85169074740278 20.698992384615554 3.104346666666733 0 0 0
326 2 34.29292154848418 19.799035845200407 4.663253754940344 0 0 0
327 1 38.969229145239666 20.698992384615565 3.1043466666667543 0 0 0
328 2 37.41045994632118 19.79903584520034 4.663253754940342 0 0 0
329 2 1.558768371194431 22.498904382165605 4.663253754940449 0 0 0
330 2 4.676306769033271 22.498904382166817 4.663253754940312 0 0 0
331 1 3.1175375701127828 23.39886092158134 3.1043466666667636 0 0 0
332 1 6.23507596795201 23.398860921581935 3.104346666666776 0 0 0
333 2 7.793845166870758 22.49890438216683 4.6632537549403255 0 0 0
334 1 9.352614365789359 23.398860921581647 3.1043466666667157 0 0 0
335 2 10.911383564707675 22.49890438216636 4.66325375494032 0 0 0
336 1 12.47015276362579 23.398860921581797 3.1043466666667268 0 0 0
337 2 14.028921962543919 22.498904382166454 4.663253754940331 0 0 0
338 1 15.587691161462025 23.39886092158155 3.1043466666667108 0 0 0
339 2 17.146460360380228 22.498904382166536 4.663253754940294 0 0 0
340 2 20.2639987582177 22.49890438216664 4.663253754940247 0 0 0
341 1 18.70522955929896 23.398860921581647 3.104346666666747 0 0 0
342 1 21.82276795713646 23.398860921581647 3.104346666666764 0 0 0
343 2 23.381537156055103 22.498904382166543 4.663253754940296 0 0 0
344 1 24.940306354973664 23.39886092158159 3.1043466666666983 0 0 0
345 2 26.49907555389208 22.49890438216658 4.663253754940279 0 0 0
346 1 28.05784475281053 23.398860921581676 3.104346666666733 0 0 0
347 2 29.616613951728965 22.498904382166454 4.6632537549403 0 0 0
348 1 31.175383150647473 23.398860921581566 3.1043466666666926 0 0 0
349 2 32.73415234956598 22.49890438216658 4.663253754940317 0 0 0
350 2 35.85169074740278 22.49890438216655 4.663253754940275 0 0 0
351 1 34.29292154848427 23.398860921581708 3.104346666666756 0 0 0
352 1 37.410459946321225 23.39886092158159 3.104346666666729 0 0 0
381 2 38.969229145239666 22.498904382166675 4.6632537549402695 0 0 0
353 1 1.5587683711933198 26.098729458548984 3.104346666666538 0 0 0
354 1 4.67630676903239 26.098729458547428 3.104346666666745 0 0 0
355 2 3.117537570111463 25.198772919133468 4.663253754939652 0 0 0
356 1 7.793845166871012 26.098729458548124 3.104346666666767 0 0 0
357 2 6.235075967952053 25.198772919133138 4.663253754940292 0 0 0
358 2 9.352614365789567 25.198772919132644 4.6632537549403885 0 0 0
359 1 10.911383564707657 26.098729458547783 3.1043466666667268 0 0 0
360 2 12.470152763625812 25.198772919132605 4.663253754940346 0 0 0
361 1 14.028921962543857 26.098729458547908 3.1043466666666832 0 0 0
362 2 15.587691161462025 25.198772919132644 4.663253754940295 0 0 0
363 1 17.14646036038029 26.09872945854777 3.1043466666667268 0 0 0
364 1 20.26399875821775 26.09872945854785 3.1043466666667316 0 0 0
365 2 18.70522955929896 25.19877291913278 4.663253754940266 0 0 0
366 1 23.381537156055167 26.09872945854792 3.1043466666667276 0 0 0
367 2 21.82276795713656 25.198772919132757 4.663253754940319 0 0 0
368 2 24.94030635497366 25.198772919132683 4.663253754940288 0 0 0
369 1 26.499075553892038 26.098729458547854 3.104346666666733 0 0 0
370 2 28.05784475281053 25.19877291913273 4.663253754940322 0 0 0
371 1 29.61661395172895 26.09872945854788 3.104346666666693 0 0 0
372 2 31.175383150647374 25.198772919132683 4.663253754940276 0 0 0
373 1 32.734152349565846 26.098729458547698 3.1043466666667348 0 0 0
374 1 35.851690747402834 26.098729458547908 3.104346666666724 0 0 0
375 2 34.29292154848428 25.198772919132754 4.66325375494031 0 0 0
376 1 38.96922914523964 26.098729458547794 3.104346666666703 0 0 0
377 2 37.410459946321225 25.198772919132605 4.663253754940292 0 0 0
378 2 1.5587683711934144 27.898641456098176 4.6632537549415405 0 0 0
379 2 4.676306769032345 27.89864145609921 4.6632537549402056 0 0 0
382 2 7.793845166870578 27.89864145609917 4.6632537549403645 0 0 0
384 2 10.911383564707714 27.898641456098698 4.663253754940341 0 0 0
386 2 14.028921962543912 27.898641456098673 4.663253754940367 0 0 0
388 2 17.146460360380317 27.898641456098847 4.66325375494032 0 0 0
389 2 20.263998758217706 27.898641456098908 4.6632537549402695 0 0 0
392 2 23.381537156055167 27.898641456098865 4.6632537549402935 0 0 0
394 2 26.499075553892155 27.898641456098847 4.663253754940345 0 0 0
396 2 29.616613951728905 27.898641456098794 4.663253754940286 0 0 0
398 2 32.73415234956588 27.898641456098744 4.6632537549403485 0 0 0
399 2 35.851690747402834 27.89864145609886 4.6632537549402535 0 0 0
380 2 38.969229145239524 27.898641456098744 4.663253754940366 0 0 0
402 3 3.117537570111009 30.598509993065456 1.5454395783935841 0 0 0
403 3 6.235075967951941 30.598509993065296 1.5454395783931996 0 0 0
404 3 9.352614365789469 30.598509993064862 1.5454395783930466 0 0 0
405 3 12.470152763625741 30.598509993064894 1.5454395783930726 0 0 0
406 3 15.587691161461983 30.598509993064823 1.5454395783931256 0 0 0
407 3 18.705229559298946 30.59850999306496 1.5454395783931543 0 0 0
408 3 21.82276795713646 30.598509993065022 1.545439578393191 0 0 0
409 3 24.940306354973625 30.598509993065004 1.545439578393156 0 0 0
410 3 28.05784475281053 30.598509993064976 1.5454395783931452 0 0 0
411 3 31.175383150647413 30.598509993064894 1.5454395783930952 0 0 0
412 3 34.29292154848428 30.598509993064944 1.5454395783931552 0 0 0
413 3 37.41045994632118 30.598509993064976 1.545439578393128 0 0 0
414 3 1.5587683711931446 33.2983785300298 1.5454395783918298 0 0 0
415 3 4.676306769032347 33.298378530031506 1.545439578393394 0 0 0
416 3 7.793845166870525 33.298378530031414 1.545439578393113 0 0 0
417 3 10.911383564707688 33.298378530030924 1.5454395783931238 0 0 0
418 3 14.028921962543846 33.298378530031044 1.545439578393092 0 0 0
419 3 17.146460360380267 33.298378530031165 1.5454395783931634 0 0 0
420 3 20.263998758217728 33.29837853003136 1.545439578393254 0 0 0
421 3 23.381537156055167 33.298378530031144 1.545439578393121 0 0 0
422 3 26.499075553892155 33.29837853003118 1.5454395783931347 0 0 0
423 3 29.6166139517289 33.298378530031144 1.5454395783931496 0 0 0
424 3 32.734152349565946 33.298378530031144 1.5454395783931536 0 0 0
425 3 35.85169074740278 33.298378530031165 1.5454395783932136 0 0 0
767 3 38.96922914523961 33.298378530031144 1.5454395783930681 0 0 0
426 3 3.117537570111336 35.9982470669974 1.545439578393657 0 0 0
427 3 6.235075967951879 35.998247066997564 1.545439578393226 0 0 0
428 3 9.352614365789453 35.99824706699715 1.545439578393106 0 0 0
429 3 12.470152763625793 35.99824706699721 1.5454395783930543 0 0 0
430 3 15.587691161462015 35.99824706699718 1.545439578393156 0 0 0
431 3 18.70522955929902 35.99824706699729 1.5454395783931953 0 0 0
432 3 21.822767957136456 35.99824706699729 1.5454395783931405 0 0 0
433 3 24.9403063549736 35.99824706699729 1.5454395783931432 0 0 0
434 3 28.05784475281063 35.99824706699727 1.5454395783931891 0 0 0
435 3 31.175383150647512 35.99824706699726 1.545439578393167 0 0 0
436 3 34.29292154848437 35.99824706699729 1.5454395783931343 0 0 0
437 3 37.41045994632118 35.99824706699718 1.5454395783932022 0 0 0
438 3 1.5587683711942306 38.69811560396118 1.5454395783915906 0 0 0
439 3 4.676306769032392 38.69811560396382 1.5454395783933688 0 0 0
440 3 7.793845166870634 38.698115603963636 1.5454395783931352 0 0 0
441 3 10.911383564707744 38.69811560396327 1.5454395783931352 0 0 0