LAMMPS data file via write_data, version 2 Aug 2023, timestep = 1479, units = metal

38080 atoms
3 atom types

0 1247.0158970291354 xlo xhi
0 86.39582906139778 ylo yhi
0 50 zlo zhi
0 0 0 xy xz yz

Masses

1 95.94
2 32.065
3 32.065

Atoms # atomic

1 3 1.558769043562046 0.8999565046170803 1.545440089587422 0 0 0
2 3 4.676308786136474 0.8999565046166743 1.5454400895855804 0 0 0
3 3 7.793848528709486 0.8999565046155126 1.5454400895864306 0 0 0
4 3 10.911388271282542 0.8999565046161088 1.5454400895857543 0 0 0
5 3 14.028928013854294 0.8999565046163917 1.5454400895861313 0 0 0
6 3 17.146467756428425 0.8999565046165702 1.54544008958592 0 0 0
7 3 20.26400749900151 0.8999565046160096 1.5454400895857603 0 0 0
8 3 23.381547241573934 0.8999565046161514 1.5454400895859737 0 0 0
9 3 26.499086984146917 0.8999565046161552 1.5454400895859395 0 0 0
10 3 29.61662672671969 0.899956504616028 1.5454400895858174 0 0 0
11 3 32.734166469292155 0.8999565046159315 1.5454400895860636 0 0 0
12 3 35.851706211865036 0.8999565046161672 1.5454400895858156 0 0 0
401 3 38.96924595443821 0.899956504616225 1.545440089586002 0 0 0
13 3 3.117538914847627 3.5998261627859707 1.5454400895855782 0 0 0
14 3 6.2350786574221635 3.5998261627845705 1.5454400895868308 0 0 0
15 3 9.352618399996539 3.5998261627849764 1.5454400895862621 0 0 0
16 3 12.470158142568662 3.5998261627844377 1.545440089585866 0 0 0
17 3 15.58769788514162 3.599826162785019 1.5454400895860076 0 0 0
18 3 18.705237627715313 3.599826162784833 1.5454400895859053 0 0 0
19 3 21.82277737028739 3.5998261627848773 1.5454400895859504 0 0 0
20 3 24.940317112860242 3.5998261627848347 1.5454400895859715 0 0 0
21 3 28.057856855433403 3.5998261627846304 1.5454400895860092 0 0 0
22 3 31.17539659800601 3.599826162784731 1.545440089585881 0 0 0
23 3 34.292936340578585 3.5998261627846673 1.5454400895859663 0 0 0
24 3 37.410476083151444 3.5998261627847072 1.5454400895859728 0 0 0
25 3 1.5587690435603652 6.299695820952817 1.545440089587404 0 0 0
26 3 4.676308786136992 6.29969582095384 1.5454400895867524 0 0 0
27 3 7.793848528709722 6.299695820953661 1.5454400895867808 0 0 0
28 3 10.911388271282691 6.299695820953604 1.5454400895858287 0 0 0
29 3 14.028928013854454 6.299695820953367 1.5454400895858944 0 0 0
30 3 17.14646775642838 6.299695820953577 1.545440089586099 0 0 0
31 3 20.26400749900149 6.299695820953385 1.5454400895859517 0 0 0
32 3 23.381547241573855 6.299695820953501 1.5454400895860116 0 0 0
33 3 26.4990869841469 6.299695820953461 1.5454400895859595 0 0 0
34 3 29.61662672671969 6.299695820953323 1.545440089585936 0 0 0
35 3 32.7341664692923 6.29969582095335 1.5454400895859361 0 0 0
36 3 35.851706211864965 6.299695820953365 1.5454400895859854 0 0 0
400 3 38.96924595443811 6.299695820953481 1.5454400895860896 0 0 0
37 3 3.117538914846952 8.999565479122033 1.5454400895857796 0 0 0
38 3 6.235078657422039 8.999565479122221 1.5454400895872975 0 0 0
39 3 9.352618399995633 8.999565479122595 1.5454400895859244 0 0 0
40 3 12.47015814256772 8.99956547912216 1.5454400895856932 0 0 0
41 3 15.58769788514159 8.999565479122142 1.5454400895861087 0 0 0
42 3 18.70523762771567 8.999565479122083 1.5454400895859215 0 0 0
43 3 21.82277737028746 8.999565479122001 1.5454400895859066 0 0 0
44 3 24.940317112860082 8.9995654791221 1.5454400895859808 0 0 0
45 3 28.05785685543326 8.999565479122039 1.5454400895859792 0 0 0
46 3 31.17539659800613 8.999565479122008 1.5454400895859477 0 0 0
47 3 34.29293634057865 8.999565479121939 1.5454400895859808 0 0 0
48 3 37.410476083151345 8.99956547912205 1.5454400895859386 0 0 0
49 3 1.5587690435589487 11.699435137289559 1.5454400895865748 0 0 0
50 3 4.676308786135847 11.699435137291152 1.5454400895867657 0 0 0
51 3 7.793848528710651 11.699435137290905 1.5454400895863027 0 0 0
52 3 10.911388271282409 11.699435137290548 1.5454400895856335 0 0 0
53 3 14.02892801385408 11.699435137290743 1.5454400895859273 0 0 0
54 3 17.14646775642838 11.69943513729092 1.5454400895861118 0 0 0
55 3 20.264007499001483 11.69943513729069 1.545440089585889 0 0 0
56 3 23.3815472415738 11.699435137290667 1.5454400895859792 0 0 0
57 3 26.499086984146793 11.699435137290658 1.5454400895859721 0 0 0
58 3 29.61662672671969 11.69943513729062 1.5454400895859093 0 0 0
59 3 32.73416646929217 11.69943513729069 1.5454400895859028 0 0 0
60 3 35.85170621186503 11.699435137290681 1.545440089585984 0 0 0
397 3 38.96924595443821 11.699435137290738 1.5454400895860732 0 0 0
61 3 3.11753891484754 14.399304795459424 1.5454400895862357 0 0 0
62 3 6.235078657422585 14.39930479545921 1.545440089586542 0 0 0
63 3 9.352618399995423 14.399304795459317 1.5454400895858493 0 0 0
64 3 12.470158142567488 14.399304795459237 1.5454400895859581 0 0 0
65 3 15.587697885141688 14.399304795459708 1.54544008958617 0 0 0
66 3 18.705237627715782 14.399304795459372 1.545440089585905 0 0 0
67 3 21.822777370287383 14.399304795459386 1.5454400895859102 0 0 0
68 3 24.940317112860082 14.399304795459559 1.5454400895859837 0 0 0
69 3 28.057856855433304 14.399304795459392 1.545440089585974 0 0 0
70 3 31.17539659800613 14.39930479545938 1.5454400895860048 0 0 0
71 3 34.292936340578585 14.39930479545946 1.5454400895859743 0 0 0
72 3 37.41047608315154 14.39930479545955 1.5454400895859681 0 0 0
73 3 1.5587690435622275 17.09917445362817 1.5454400895867446 0 0 0
74 3 4.676308786136378 17.099174453628542 1.5454400895860354 0 0 0
75 3 7.7938485287105825 17.099174453627963 1.545440089586394 0 0 0
76 3 10.911388271282517 17.099174453627555 1.5454400895856921 0 0 0
77 3 14.028928013854125 17.099174453628258 1.5454400895859264 0 0 0
78 3 17.146467756428574 17.099174453628212 1.545440089586094 0 0 0
79 3 20.264007499001604 17.09917445362813 1.545440089585914 0 0 0
80 3 23.38154724157364 17.099174453628184 1.5454400895859528 0 0 0
81 3 26.499086984146714 17.09917445362827 1.5454400895859888 0 0 0
82 3 29.61662672671969 17.099174453628255 1.5454400895860059 0 0 0
83 3 32.734166469292276 17.09917445362816 1.5454400895859706 0 0 0
84 3 35.85170621186519 17.099174453628184 1.5454400895858653 0 0 0
395 3 38.969245954438044 17.09917445362835 1.545440089586073 0 0 0
85 3 3.117538914848775 19.799044111796853 1.5454400895852056 0 0 0
86 3 6.235078657423271 19.79904411179704 1.5454400895865334 0 0 0
87 3 9.352618399996217 19.799044111796857 1.5454400895858547 0 0 0
88 3 12.470158142567787 19.79904411179665 1.5454400895858995 0 0 0
89 3 15.587697885141868 19.799044111797016 1.5454400895861837 0 0 0
90 3 18.70523762771567 19.79904411179685 1.5454400895859384 0 0 0
91 3 21.822777370287483 19.799044111796757 1.5454400895858935 0 0 0
92 3 24.94031711286006 19.799044111797002 1.545440089586045 0 0 0
93 3 28.0578568554333 19.799044111796906 1.5454400895860219 0 0 0
94 3 31.17539659800611 19.799044111796825 1.5454400895859368 0 0 0
95 3 34.29293634057865 19.799044111796913 1.5454400895858815 0 0 0
96 3 37.41047608315154 19.79904411179681 1.545440089586056 0 0 0
97 3 1.5587690435643593 22.498913769964933 1.545440089584299 0 0 0
98 3 4.676308786135609 22.498913769966776 1.5454400895862899 0 0 0
99 3 7.7938485287096295 22.498913769965558 1.5454400895862057 0 0 0
100 3 10.911388271282343 22.498913769965064 1.5454400895857585 0 0 0
101 3 14.028928013854367 22.498913769965487 1.5454400895859632 0 0 0
102 3 17.14646775642858 22.498913769965647 1.5454400895860283 0 0 0
103 3 20.264007499001544 22.49891376996525 1.5454400895858273 0 0 0
104 3 23.381547241573674 22.498913769965238 1.545440089585925 0 0 0
105 3 26.499086984146793 22.498913769965366 1.5454400895859715 0 0 0
106 3 29.61662672671974 22.498913769965494 1.5454400895859057 0 0 0
107 3 32.73416646929228 22.498913769965405 1.5454400895859137 0 0 0
108 3 35.851706211864965 22.49891376996527 1.54544008958598 0 0 0
393 3 38.969245954438044 22.498913769965373 1.5454400895859584 0 0 0
109 3 3.1175389148493924 25.19878342813463 1.5454400895848628 0 0 0
110 3 6.235078657422975 25.198783428134394 1.545440089586517 0 0 0
111 3 9.352618399995976 25.198783428134202 1.5454400895860831 0 0 0
112 3 12.470158142568025 25.198783428133865 1.5454400895858533 0 0 0
113 3 15.58769788514176 25.198783428134274 1.5454400895861231 0 0 0
114 3 18.705237627715594 25.198783428133954 1.5454400895859237 0 0 0
115 3 21.822777370287323 25.198783428133986 1.5454400895858968 0 0 0
116 3 24.94031711286006 25.198783428133904 1.5454400895860372 0 0 0
117 3 28.057856855433283 25.198783428134 1.5454400895859062 0 0 0
118 3 31.17539659800592 25.198783428133932 1.545440089585962 0 0 0
119 3 34.29293634057878 25.198783428134067 1.545440089585991 0 0 0
120 3 37.41047608315164 25.198783428134096 1.5454400895859888 0 0 0
121 3 1.558769043563441 27.898653086301223 1.5454400895848652 0 0 0
122 3 4.676308786135846 27.898653086303735 1.545440089585914 0 0 0
123 3 7.793848528709782 27.898653086303202 1.5454400895863107 0 0 0
124 3 10.911388271282192 27.898653086302893 1.5454400895859293 0 0 0
125 3 14.028928013854387 27.898653086302772 1.5454400895859173 0 0 0
126 3 17.14646775642839 27.898653086302968 1.5454400895860354 0 0 0
127 3 20.264007499001476 27.898653086302776 1.5454400895859117 0 0 0
128 3 23.3815472415738 27.898653086302843 1.5454400895860587 0 0 0
129 3 26.49908698414684 27.898653086302737 1.545440089585998 0 0 0
130 3 29.61662672671979 27.898653086302776 1.5454400895859368 0 0 0
131 3 32.73416646929218 27.89865308630284 1.5454400895858864 0 0 0
132 3 35.851706211864965 27.898653086302804 1.5454400895859512 0 0 0
391 3 38.969245954438044 27.89865308630293 1.5454400895861 0 0 0
133 2 1.5587690435631487 0.8999565046157112 4.663253243746444 0 0 0
134 2 4.676308786135906 0.8999565046165856 4.663253243747102 0 0 0
135 1 3.1175389148499 1.7999132844320347 3.1043466666663275 0 0 0
136 1 6.235078657423068 1.7999132844313896 3.1043466666665775 0 0 0
137 2 7.79384852870926 0.8999565046152603 4.663253243746863 0 0 0
138 1 9.352618399996546 1.7999132844316832 3.1043466666667996 0 0 0
139 2 10.911388271282611 0.8999565046160325 4.663253243747826 0 0 0
140 1 12.470158142568371 1.7999132844321024 3.1043466666667987 0 0 0
141 2 14.028928013854385 0.8999565046162875 4.66325324374741 0 0 0
142 1 15.587697885141361 1.7999132844319554 3.1043466666667 0 0 0
143 2 17.146467756428518 0.8999565046165867 4.663253243747323 0 0 0
144 2 20.264007499001504 0.8999565046159609 4.6632532437474765 0 0 0
145 1 18.705237627715107 1.7999132844319168 3.1043466666665895 0 0 0
146 1 21.82277737028758 1.799913284431977 3.1043466666666255 0 0 0
147 2 23.38154724157386 0.8999565046161685 4.663253243747372 0 0 0
148 1 24.940317112860498 1.799913284431873 3.10434666666666 0 0 0
149 2 26.499086984146995 0.8999565046162136 4.66325324374749 0 0 0
150 1 28.057856855433418 1.7999132844317631 3.1043466666667054 0 0 0
151 2 29.61662672671979 0.8999565046160957 4.66325324374757 0 0 0
152 1 31.175396598006003 1.7999132844319032 3.10434666666663 0 0 0
153 2 32.734166469292184 0.8999565046160413 4.663253243747348 0 0 0
154 2 35.851706211865185 0.8999565046160511 4.663253243747577 0 0 0
155 1 34.29293634057849 1.79991328443185 3.1043466666667516 0 0 0
156 1 37.410476083151494 1.7999132844318317 3.1043466666666553 0 0 0
390 2 38.96924595443797 0.8999565046161936 4.663253243747334 0 0 0
157 1 1.5587690435618338 4.499782942599779 3.104346666666659 0 0 0
158 1 4.676308786134706 4.499782942600432 3.1043466666667037 0 0 0
159 2 3.1175389148472075 3.5998261627853045 4.663253243747318 0 0 0
160 1 7.793848528709494 4.499782942600262 3.1043466666669812 0 0 0
161 2 6.235078657421797 3.5998261627843475 4.663253243746752 0 0 0
162 2 9.352618399996727 3.599826162784893 4.663253243747427 0 0 0
163 1 10.911388271282965 4.499782942600917 3.1043466666667583 0 0 0
164 2 12.470158142568742 3.5998261627845696 4.663253243747663 0 0 0
165 1 14.02892801385483 4.499782942600521 3.104346666666683 0 0 0
166 2 15.587697885141653 3.59982616278505 4.663253243747333 0 0 0
167 1 17.146467756428788 4.499782942600471 3.1043466666666664 0 0 0
168 1 20.264007499001448 4.499782942600733 3.1043466666666912 0 0 0
169 2 18.70523762771528 3.5998261627847725 4.663253243747389 0 0 0
170 1 23.381547241573873 4.499782942600605 3.1043466666667 0 0 0
171 2 21.822777370287398 3.5998261627847494 4.663253243747368 0 0 0
172 2 24.940317112860228 3.599826162784802 4.663253243747335 0 0 0
173 1 26.499086984146974 4.499782942600526 3.1043466666666575 0 0 0
174 2 28.057856855433325 3.5998261627847006 4.663253243747374 0 0 0
175 1 29.61662672671969 4.49978294260047 3.104346666666687 0 0 0
176 2 31.175396598006063 3.5998261627847015 4.663253243747387 0 0 0
177 1 32.73416646929227 4.499782942600544 3.104346666666649 0 0 0
178 1 35.85170621186499 4.499782942600473 3.1043466666666886 0 0 0
179 2 34.292936340578585 3.599826162784668 4.6632532437474525 0 0 0
180 1 38.96924595443803 4.499782942600454 3.104346666666645 0 0 0
181 2 37.41047608315154 3.5998261627848036 4.663253243747373 0 0 0
182 2 1.5587690435611348 6.299695820951733 4.6632532437459036 0 0 0
183 2 4.67630878613646 6.299695820953786 4.663253243747 0 0 0
184 1 3.1175389148487134 7.1996526007685056 3.104346666666612 0 0 0
185 1 6.235078657423908 7.199652600769249 3.1043466666672073 0 0 0
186 2 7.793848528710134 6.29969582095356 4.663253243747305 0 0 0
187 1 9.352618399996816 7.19965260076974 3.1043466666667663 0 0 0
188 2 10.91138827128283 6.299695820953786 4.663253243747453 0 0 0
189 1 12.47015814256849 7.199652600769581 3.10434666666655 0 0 0
190 2 14.028928013854316 6.299695820953385 4.663253243747352 0 0 0
191 1 15.587697885141301 7.199652600768952 3.104346666666675 0 0 0
192 2 17.146467756428276 6.299695820953611 4.663253243747301 0 0 0
193 2 20.264007499001455 6.299695820953442 4.663253243747471 0 0 0
194 1 18.705237627715217 7.1996526007691335 3.1043466666666917 0 0 0
195 1 21.822777370287547 7.1996526007693324 3.104346666666695 0 0 0
196 2 23.381547241573816 6.2996958209536205 4.663253243747374 0 0 0
197 1 24.94031711286034 7.199652600769244 3.1043466666666646 0 0 0
198 2 26.499086984146896 6.2996958209534135 4.663253243747366 0 0 0
199 1 28.05785685543324 7.1996526007691335 3.1043466666666775 0 0 0
200 2 29.61662672671975 6.299695820953322 4.663253243747449 0 0 0
201 1 31.175396598005907 7.199652600769168 3.1043466666666912 0 0 0
202 2 32.73416646929221 6.299695820953306 4.6632532437474 0 0 0
203 2 35.85170621186509 6.299695820953401 4.663253243747388 0 0 0
204 1 34.29293634057868 7.199652600769111 3.104346666666705 0 0 0
205 1 37.41047608315159 7.1996526007691735 3.1043466666666744 0 0 0
387 2 38.96924595443814 6.299695820953389 4.663253243747291 0 0 0
206 1 1.5587690435619543 9.899522258937175 3.104346666665964 0 0 0
207 1 4.676308786134228 9.89952225893761 3.104346666666887 0 0 0
208 2 3.1175389148460915 8.999565479122388 4.66325324374708 0 0 0
209 1 7.793848528709543 9.899522258938168 3.104346666666847 0 0 0
210 2 6.23507865742221 8.999565479122422 4.663253243746919 0 0 0
211 2 9.35261839999589 8.99956547912271 4.663253243747453 0 0 0
212 1 10.91138827128182 9.899522258938253 3.104346666666546 0 0 0
213 2 12.470158142567707 8.999565479122113 4.6632532437473975 0 0 0
214 1 14.028928013854317 9.899522258937667 3.1043466666666264 0 0 0
215 2 15.587697885141504 8.999565479122138 4.6632532437472785 0 0 0
216 1 17.146467756428816 9.899522258937669 3.104346666666716 0 0 0
217 1 20.264007499001647 9.89952225893805 3.104346666666667 0 0 0
218 2 18.705237627715643 8.999565479122035 4.66325324374746 0 0 0
219 1 23.381547241573635 9.8995222589378 3.10434666666669 0 0 0
220 2 21.82277737028747 8.999565479122058 4.663253243747442 0 0 0
221 2 24.940317112860182 8.99956547912207 4.663253243747367 0 0 0
222 1 26.49908698414675 9.899522258937699 3.1043466666666784 0 0 0
223 2 28.057856855433357 8.999565479121987 4.663253243747387 0 0 0
224 1 29.616626726719716 9.89952225893775 3.1043466666666886 0 0 0
225 2 31.17539659800613 8.999565479122053 4.6632532437474135 0 0 0
226 1 32.734166469292305 9.899522258937862 3.1043466666666504 0 0 0
227 1 35.85170621186502 9.89952225893769 3.104346666666673 0 0 0
228 2 34.29293634057865 8.999565479121967 4.663253243747366 0 0 0
229 1 38.969245954438 9.899522258937742 3.1043466666666757 0 0 0
230 2 37.41047608315154 8.999565479122015 4.663253243747405 0 0 0
231 2 1.5587690435593384 11.699435137288374 4.663253243746448 0 0 0
232 2 4.676308786136086 11.699435137291495 4.663253243746912 0 0 0
233 1 3.1175389148468597 12.599391917105248 3.1043466666667268 0 0 0
234 1 6.235078657423879 12.599391917106196 3.1043466666666983 0 0 0
235 2 7.793848528710693 11.699435137291106 4.6632532437470715 0 0 0
236 1 9.352618399997048 12.599391917106745 3.104346666666626 0 0 0
237 2 10.9113882712824 11.699435137290418 4.663253243747584 0 0 0
238 1 12.470158142567964 12.599391917106594 3.104346666666659 0 0 0
239 2 14.02892801385408 11.699435137290699 4.6632532437474 0 0 0
240 1 15.587697885141184 12.599391917106258 3.104346666666694 0 0 0
241 2 17.146467756428397 11.699435137290914 4.663253243747312 0 0 0
242 2 20.264007499001448 11.699435137290633 4.663253243747453 0 0 0
243 1 18.70523762771532 12.599391917106583 3.1043466666667063 0 0 0
244 1 21.822777370287668 12.599391917106741 3.1043466666666792 0 0 0
245 2 23.381547241573774 11.699435137290667 4.663253243747376 0 0 0
246 1 24.94031711286026 12.599391917106484 3.10434666666669 0 0 0
247 2 26.499086984146828 11.69943513729069 4.6632532437473895 0 0 0
248 1 28.057856855433247 12.599391917106528 3.1043466666666575 0 0 0
249 2 29.61662672671975 11.699435137290694 4.66325324374744 0 0 0
250 1 31.17539659800606 12.599391917106512 3.1043466666667037 0 0 0
251 2 32.734166469292184 11.699435137290633 4.663253243747427 0 0 0
252 2 35.85170621186495 11.699435137290562 4.663253243747315 0 0 0
253 1 34.29293634057866 12.599391917106542 3.104346666666652 0 0 0
254 1 37.41047608315154 12.599391917106464 3.1043466666667014 0 0 0
385 2 38.96924595443827 11.699435137290802 4.663253243747331 0 0 0
255 1 1.558769043562266 15.299261575274851 3.104346666666656 0 0 0
256 1 4.676308786135296 15.299261575274985 3.1043466666665585 0 0 0
257 2 3.1175389148474904 14.399304795459757 4.663253243747273 0 0 0
258 1 7.7938485287095185 15.29926157527505 3.104346666666658 0 0 0
259 2 6.235078657422606 14.399304795459148 4.663253243746706 0 0 0
260 2 9.352618399995448 14.39930479545927 4.663253243747463 0 0 0
261 1 10.911388271281384 15.299261575275157 3.1043466666666912 0 0 0
262 2 12.47015814256742 14.399304795459189 4.663253243747411 0 0 0
263 1 14.02892801385429 15.299261575275068 3.1043466666667126 0 0 0
264 2 15.587697885141788 14.39930479545966 4.663253243747227 0 0 0
265 1 17.146467756428905 15.299261575275047 3.104346666666675 0 0 0
266 1 20.26400749900143 15.299261575275498 3.1043466666666966 0 0 0
267 2 18.705237627715775 14.399304795459479 4.663253243747482 0 0 0
268 1 23.38154724157361 15.299261575275375 3.1043466666666664 0 0 0
269 2 21.822777370287366 14.399304795459367 4.663253243747468 0 0 0
270 2 24.94031711286006 14.399304795459592 4.663253243747352 0 0 0
271 1 26.499086984146857 15.299261575275139 3.1043466666666695 0 0 0
272 2 28.05785685543328 14.399304795459415 4.663253243747328 0 0 0
273 1 29.61662672671993 15.299261575275308 3.1043466666666766 0 0 0
274 2 31.17539659800613 14.399304795459367 4.663253243747408 0 0 0
275 1 32.734166469292305 15.299261575275308 3.10434666666671 0 0 0
276 1 35.85170621186512 15.299261575275342 3.1043466666666464 0 0 0
277 2 34.292936340578585 14.399304795459415 4.663253243747379 0 0 0
278 1 38.96924595443797 15.299261575275224 3.104346666666706 0 0 0
279 2 37.41047608315142 14.39930479545955 4.663253243747368 0 0 0
280 2 1.558769043562081 17.09917445362843 4.663253243745919 0 0 0
281 2 4.6763087861362775 17.099174453628546 4.6632532437470005 0 0 0
282 1 3.1175389148494537 17.99913123344407 3.104346666666433 0 0 0
283 1 6.235078657423832 17.9991312334438 3.104346666666543 0 0 0
284 2 7.793848528710467 17.099174453627892 4.663253243746882 0 0 0
285 1 9.352618399997112 17.999131233444064 3.104346666666681 0 0 0
286 2 10.911388271282595 17.099174453627676 4.66325324374765 0 0 0
287 1 12.470158142568037 17.999131233443933 3.1043466666666406 0 0 0
288 2 14.028928013854136 17.09917445362821 4.66325324374743 0 0 0
289 1 15.587697885141374 17.99913123344377 3.1043466666666952 0 0 0
290 2 17.146467756428557 17.099174453628265 4.6632532437472705 0 0 0
291 2 20.264007499001664 17.099174453628162 4.663253243747454 0 0 0
292 1 18.705237627715476 17.999131233444 3.1043466666666713 0 0 0
293 1 21.822777370287476 17.999131233444178 3.1043466666666886 0 0 0
294 2 23.381547241573678 17.099174453628272 4.66325324374736 0 0 0
295 1 24.940317112860203 17.999131233444007 3.1043466666666477 0 0 0
296 2 26.499086984146697 17.0991744536282 4.663253243747351 0 0 0
297 1 28.0578568554332 17.99913123344394 3.104346666666727 0 0 0
298 2 29.61662672671987 17.099174453628173 4.66325324374746 0 0 0
299 1 31.17539659800598 17.999131233444015 3.1043466666666886 0 0 0
300 2 32.73416646929233 17.099174453628194 4.663253243747404 0 0 0
301 2 35.851706211865036 17.099174453628216 4.6632532437474365 0 0 0
302 1 34.292936340578635 17.999131233444082 3.1043466666666304 0 0 0
303 1 37.41047608315164 17.999131233444 3.1043466666666983 0 0 0
383 2 38.96924595443813 17.099174453628308 4.663253243747264 0 0 0
304 1 1.5587690435617383 20.699000891611984 3.1043466666659154 0 0 0
305 1 4.6763087861353565 20.699000891612894 3.104346666666671 0 0 0
306 2 3.117538914848255 19.79904411179728 4.663253243747433 0 0 0
307 1 7.79384852870996 20.699000891612673 3.104346666666595 0 0 0
308 2 6.235078657423514 19.799044111796814 4.663253243746714 0 0 0
309 2 9.352618399996034 19.799044111796917 4.663253243747437 0 0 0
310 1 10.911388271281876 20.69900089161273 3.1043466666667348 0 0 0
311 2 12.47015814256789 19.799044111796608 4.663253243747492 0 0 0
312 1 14.028928013854504 20.699000891612343 3.1043466666666566 0 0 0
313 2 15.587697885141719 19.79904411179704 4.66325324374716 0 0 0
314 1 17.146467756428923 20.699000891612428 3.1043466666666997 0 0 0
315 1 20.26400749900161 20.699000891612755 3.1043466666666792 0 0 0
316 2 18.70523762771567 19.799044111796842 4.663253243747393 0 0 0
317 1 23.3815472415736 20.699000891612492 3.1043466666667188 0 0 0
318 2 21.822777370287422 19.799044111796757 4.663253243747547 0 0 0
319 2 24.940317112860022 19.799044111796942 4.663253243747324 0 0 0
320 1 26.49908698414673 20.699000891612553 3.1043466666666997 0 0 0
321 2 28.05785685543328 19.799044111796906 4.663253243747358 0 0 0
322 1 29.61662672671954 20.69900089161249 3.104346666666633 0 0 0
323 2 31.17539659800606 19.799044111796945 4.663253243747363 0 0 0
324 1 32.734166469292205 20.699000891612634 3.1043466666666597 0 0 0
325 1 35.85170621186519 20.699000891612474 3.1043466666666553 0 0 0
326 2 34.29293634057865 19.79904411179694 4.6632532437474055 0 0 0
327 1 38.969245954438044 20.69900089161249 3.1043466666666775 0 0 0
328 2 37.41047608315154 19.799044111796928 4.663253243747309 0 0 0
329 2 1.5587690435622392 22.498913769964798 4.663253243747591 0 0 0
330 2 4.676308786135595 22.498913769966293 4.663253243747455 0 0 0
331 1 3.1175389148486756 23.398870549780835 3.1043466666667894 0 0 0
332 1 6.235078657423138 23.39887054978127 3.1043466666667925 0 0 0
333 2 7.793848528709813 22.498913769965544 4.6632532437472305 0 0 0
334 1 9.352618399996492 23.39887054978116 3.104346666666704 0 0 0
335 2 10.911388271282323 22.498913769965064 4.663253243747626 0 0 0
336 1 12.470158142568225 23.398870549781222 3.1043466666666806 0 0 0
337 2 14.028928013854308 22.498913769965558 4.6632532437474215 0 0 0
338 1 15.587697885141454 23.39887054978099 3.104346666666678 0 0 0
339 2 17.14646775642864 22.498913769965558 4.663253243747353 0 0 0
340 2 20.264007499001547 22.49891376996525 4.663253243747473 0 0 0
341 1 18.705237627715427 23.398870549781126 3.1043466666666704 0 0 0
342 1 21.822777370287657 23.398870549781165 3.1043466666666344 0 0 0
343 2 23.381547241573635 22.498913769965366 4.663253243747464 0 0 0
344 1 24.94031711286012 23.398870549781048 3.1043466666667174 0 0 0
345 2 26.499086984146775 22.498913769965366 4.663253243747446 0 0 0
346 1 28.057856855433343 23.398870549781087 3.104346666666667 0 0 0
347 2 29.61662672671964 22.49891376996544 4.6632532437473975 0 0 0
348 1 31.175396598005992 23.398870549781112 3.104346666666689 0 0 0
349 2 32.73416646929221 22.49891376996532 4.663253243747479 0 0 0
350 2 35.851706211865014 22.49891376996542 4.663253243747454 0 0 0
351 1 34.29293634057878 23.398870549781073 3.1043466666667543 0 0 0
352 1 37.41047608315154 23.398870549781083 3.1043466666666464 0 0 0
381 2 38.969245954437966 22.498913769965398 4.663253243747356 0 0 0
353 1 1.55876904356279 26.098740207948612 3.104346666666053 0 0 0
354 1 4.676308786135407 26.098740207950275 3.1043466666666735 0 0 0
355 2 3.1175389148497135 25.198783428134217 4.66325324374811 0 0 0
356 1 7.793848528709569 26.09874020795007 3.1043466666668422 0 0 0
357 2 6.235078657422822 25.198783428134476 4.663253243747032 0 0 0
358 2 9.352618399996006 25.198783428134 4.663253243747516 0 0 0
359 1 10.911388271282032 26.09874020795005 3.1043466666667645 0 0 0
360 2 12.470158142568055 25.198783428133837 4.663253243747493 0 0 0
361 1 14.028928013854715 26.098740207949835 3.1043466666666655 0 0 0
362 2 15.587697885141738 25.19878342813433 4.663253243747245 0 0 0
363 1 17.146467756428848 26.098740207949856 3.1043466666666744 0 0 0
364 1 20.264007499001448 26.09874020794989 3.104346666666679 0 0 0
365 2 18.705237627715682 25.198783428133996 4.663253243747438 0 0 0
366 1 23.381547241573674 26.09874020794985 3.104346666666676 0 0 0
367 2 21.8227773702874 25.19878342813389 4.663253243747408 0 0 0
368 2 24.940317112860082 25.198783428133986 4.663253243747297 0 0 0
369 1 26.4990869841468 26.09874020794991 3.1043466666666655 0 0 0
370 2 28.05785685543334 25.19878342813397 4.66325324374744 0 0 0
371 1 29.61662672671983 26.09874020794989 3.104346666666649 0 0 0
372 2 31.17539659800596 25.198783428133922 4.663253243747353 0 0 0
373 1 32.73416646929228 26.09874020794985 3.1043466666666464 0 0 0
374 1 35.85170621186529 26.09874020795002 3.1043466666666633 0 0 0
375 2 34.29293634057878 25.198783428134192 4.663253243747464 0 0 0
376 1 38.96924595443813 26.098740207949795 3.104346666666733 0 0 0
377 2 37.41047608315154 25.198783428134163 4.663253243747359 0 0 0
378 2 1.558769043565181 27.898653086300406 4.663253243748463 0 0 0
379 2 4.676308786136588 27.898653086303614 4.663253243746897 0 0 0
380 2 38.9692459544382 27.898653086302843 4.663253243747322 0 0 0
382 2 7.793848528709605 27.898653086303298 4.6632532437472 0 0 0
399 2 35.851706211864965 27.898653086302954 4.663253243747318 0 0 0
398 2 32.734166469292184 27.89865308630264 4.663253243747491 0 0 0
384 2 10.9113882712823 27.89865308630292 4.66325324374764 0 0 0
396 2 29.61662672671964 27.898653086302858 4.663253243747416 0 0 0
386 2 14.028928013854378 27.89865308630284 4.663253243747393 0 0 0
394 2 26.499086984146874 27.898653086302776 4.663253243747317 0 0 0
388 2 17.14646775642836 27.89865308630293 4.663253243747233 0 0 0
389 2 20.26400749900141 27.89865308630271 4.663253243747462 0 0 0
392 2 23.381547241573777 27.898653086302843 4.663253243747362 0 0 0
402 3 3.11753891484694 30.5985227444727 1.5454400895864062 0 0 0
403 3 6.235078657422061 30.5985227444718 1.5454400895866223 0 0 0
404 3 9.352618399994832 30.598522744471847 1.5454400895860037 0 0 0
405 3 12.470158142567627 30.5985227444715 1.5454400895860054 0 0 0
406 3 15.587697885142036 30.59852274447167 1.5454400895861178 0 0 0
407 3 18.705237627715633 30.5985227444715 1.5454400895859437 0 0 0
408 3 21.822777370287298 30.598522744471595 1.5454400895859457 0 0 0
409 3 24.940317112860104 30.598522744471577 1.5454400895860168 0 0 0
410 3 28.057856855433307 30.598522744471566 1.5454400895860012 0 0 0
411 3 31.17539659800601 30.598522744471477 1.5454400895859364 0 0 0
412 3 34.29293634057858 30.598522744471662 1.5454400895859588 0 0 0
413 3 37.41047608315162 30.59852274447166 1.5454400895859586 0 0 0
414 3 1.5587690435631574 33.298392402638164 1.5454400895856168 0 0 0
415 3 4.6763087861366 33.29839240264072 1.5454400895867944 0 0 0
416 3 7.793848528710114 33.29839240264016 1.5454400895861191 0 0 0
417 3 10.911388271281494 33.29839240263984 1.5454400895859723 0 0 0
418 3 14.028928013854397 33.29839240264012 1.5454400895859044 0 0 0
419 3 17.146467756428777 33.29839240264038 1.5454400895860103 0 0 0
420 3 20.264007499001387 33.2983924026401 1.545440089585922 0 0 0
421 3 23.381547241573696 33.29839240264029 1.5454400895860005 0 0 0
422 3 26.499086984146857 33.2983924026401 1.5454400895859581 0 0 0
423 3 29.61662672671965 33.298392402640204 1.5454400895859886 0 0 0
424 3 32.7341664692922 33.29839240264022 1.545440089585925 0 0 0
425 3 35.85170621186499 33.29839240264029 1.5454400895859874 0 0 0
767 3 38.9692459544381 33.298392402640246 1.5454400895860598 0 0 0
426 3 3.1175389148489034 35.998262060809076 1.5454400895855174 0 0 0
427 3 6.23507865742318 35.99826206080839 1.5454400895865361 0 0 0
428 3 9.352618399994881 35.99826206080862 1.545440089585958 0 0 0
429 3 12.470158142567858 35.998262060808955 1.5454400895860196 0 0 0
430 3 15.587697885142415 35.99826206080934 1.5454400895859732 0 0 0
431 3 18.70523762771558 35.99826206080879 1.545440089585835 0 0 0
432 3 21.82277737028718 35.9982620608089 1.5454400895859832 0 0 0
433 3 24.940317112860104 35.99826206080894 1.5454400895859426 0 0 0
434 3 28.057856855433243 35.99826206080891 1.5454400895860165 0 0 0
435 3 31.17539659800608 35.99826206080879 1.5454400895859894 0 0 0
436 3 34.29293634057874 35.99826206080891 1.5454400895860063 0 0 0
437 3 37.410476083151444 35.99826206080894 1.5454400895859348 0 0 0
438 3 1.558769043562133 38.6981317189769 1.5454400895862672 0 0 0
439 3 4.676308786136696 38.6981317189774 1.5454400895863094 0 0 0
440 3 7.79384852870926 38.69813171897695 1.545440089586462 0 0 0
441 3 10.911388271281675 38.69813171897699 1.545440089585849 0 0 0
442 3 14.028928013854266 38.69813171897793 1.5454400895860076 0 0 0