LAMMPS data file via write_data, version 21 Nov 2023, timestep = 2037, units = metal

37775 atoms
3 atom types

0 1247.014922451825 xlo xhi
0 86.39572837392693 ylo yhi
0 50 zlo zhi
0 0 0 xy xz yz

Masses

1 95.94
2 32.065
3 32.065

Atoms # atomic

37775 3 1.5587335310537407 0.8999411501633067 1.5454683886392004 0 0 0
27734 3 4.676296148683529 0.8999399246152724 1.5454607716595439 0 0 0
27733 3 7.793867461800252 0.8999434491070814 1.5454932944854154 0 0 0
27732 3 10.911364122059434 0.8999363211426185 1.5453780885234807 0 0 0
27731 3 14.028864113203246 0.8999398224439137 1.5454906325577356 0 0 0
27730 3 17.14642595487698 0.8999324515951173 1.5454592322704785 0 0 0
27729 3 20.26397263653837 0.8999331212249286 1.545447967211681 0 0 0
27728 3 23.381516956333424 0.8999360110085627 1.5454408073479948 0 0 0
27727 3 26.499059578598434 0.899938539901792 1.5454364727094807 0 0 0
27726 3 29.61659936975438 0.8999409306420262 1.5454334639414111 0 0 0
27725 3 32.734142955944826 0.8999451243985359 1.5454310323953768 0 0 0
27724 3 35.85168592880427 0.8999479706370056 1.5454334928319104 0 0 0
23851 2 35.85167210045927 27.898621579892083 4.663265960167153 0 0 0
27735 3 3.1175132275691437 3.5998091440893196 1.5454533434446056 0 0 0
27723 3 6.235062173369146 3.5998028871713705 1.5454524299918573 0 0 0
27721 3 9.35261171059595 3.599767882476821 1.5454856728382407 0 0 0
27720 3 12.470117446846874 3.5997685469162217 1.5454842046737154 0 0 0
27719 3 15.58766266368648 3.5997993253551432 1.545450001472736 0 0 0
27718 3 18.705207156272973 3.5998041083048844 1.5454431494171812 0 0 0
27717 3 21.822747037080713 3.5998059081985665 1.5454379572653039 0 0 0
27716 3 24.9402908757393 3.5998076814947217 1.5454340249696967 0 0 0
27715 3 28.057832434326023 3.599809976166253 1.5454327999911541 0 0 0
27714 3 31.1753756351871 3.599816280690184 1.545431707041837 0 0 0
27713 3 34.29291730670257 3.5998184839071268 1.545435303026088 0 0 0
27712 3 37.41046031280383 3.599820542336982 1.545442018083369 0 0 0
27711 3 1.5587371575302182 6.299679965481388 1.5454583441453913 0 0 0
27722 3 4.6762847980353515 6.299678150739145 1.545447974477414 0 0 0
27737 3 7.793832015257362 6.299667767132473 1.545451125180813 0 0 0
27750 3 10.911363792387654 6.299665761488583 1.545457804406214 0 0 0
27738 3 14.02889384798294 6.2996657538782985 1.5454496439704928 0 0 0
27762 3 17.146437299076428 6.29967665896003 1.5454417744371365 0 0 0
27761 3 20.263979142359 6.29967796687591 1.5454392889539816 0 0 0
27760 3 23.381519360455307 6.299679337757701 1.5454341958721465 0 0 0
27759 3 26.499064091691015 6.2996797676498515 1.5454330993461505 0 0 0
27758 3 29.61660914140004 6.299686130516815 1.545436113948755 0 0 0
27757 3 32.734153065725096 6.299696832668855 1.5454434647712239 0 0 0
27756 3 35.851687037063655 6.299693471020719 1.5454502492717461 0 0 0
23213 2 32.734138974142795 27.898619246047957 4.66328334712033 0 0 0
27755 3 3.117512144672849 8.999549619849105 1.5454514214738828 0 0 0
27754 3 6.235060209112777 8.999549890495217 1.5454485516498557 0 0 0
27753 3 9.352596443795507 8.99954735230509 1.545454180754029 0 0 0
27752 3 12.470130254936048 8.999546419108047 1.5454537022993173 0 0 0
27763 3 15.587664669361123 8.999548136657484 1.545446558597008 0 0 0
27751 3 18.70520764245215 8.99954768951897 1.5454405877519801 0 0 0
27749 3 21.82275124972068 8.999547812684398 1.5454375079023288 0 0 0
27748 3 24.940292825016375 8.999549153228251 1.5454345040669972 0 0 0
27747 3 28.057841013814425 8.99955189239758 1.5454378716717798 0 0 0
27746 3 31.175388250172375 8.99955851660206 1.5454519873774986 0 0 0
27745 3 34.2929403742935 8.999582968170259 1.545485780035203 0 0 0
27744 3 37.41043046201542 8.999581352275463 1.5454933351332123 0 0 0
27743 3 1.558743857077031 11.699422250793925 1.5454618480940552 0 0 0
27742 3 4.676290133633463 11.699427031180312 1.545458418937815 0 0 0
27741 3 7.793832401511964 11.69943434923838 1.545462772574899 0 0 0
27740 3 10.911362018843151 11.699427820437593 1.5454635059174096 0 0 0
27739 3 14.028890713069984 11.699428580353906 1.545459584308313 0 0 0
27710 3 17.14643374941799 11.699420635109307 1.5454500709624233 0 0 0
27709 3 20.263977682748592 11.699419174066147 1.5454422847733364 0 0 0
27708 3 23.38152095089139 11.699417545674645 1.5454384562677548 0 0 0
27694 3 26.49906742579977 11.699418355372993 1.5454370925994823 0 0 0
27678 3 29.616619008349474 11.699417541636498 1.545447245000466 0 0 0
27677 3 32.73418580264633 11.699422209157857 1.5454875700839488 0 0 0
27676 3 35.851684014590504 11.699415996699798 1.545381534292347 0 0 0
27804 3 38.96918044659918 11.699419547214767 1.545501511950948 0 0 0
27675 3 3.117524219817256 14.399295414619965 1.5454688299158548 0 0 0
27674 3 6.23506163504826 14.399304567781153 1.5454786893530779 0 0 0
27673 3 9.352614297653346 14.399321473504521 1.5455029381926584 0 0 0
27672 3 12.470103691158684 14.399319757159988 1.54549916766217 0 0 0
27671 3 15.587654879972849 14.39929177569827 1.5454646482034313 0 0 0
27670 3 18.705202190865045 14.399286738711185 1.5454488406096827 0 0 0
27669 3 21.82274720834119 14.399284633759615 1.545440234441824 0 0 0
27668 3 24.940291674081237 14.399283733640656 1.5454355823373556 0 0 0
27667 3 28.057837385841996 14.399282110220057 1.5454386756310374 0 0 0
27666 3 31.175382402748742 14.399277876970386 1.5454513012959812 0 0 0
27665 3 34.29292889760755 14.3992433620499 1.545493542238883 0 0 0
27664 3 37.4104343926141 14.399241086615751 1.545500684047688 0 0 0
27663 3 1.558777892441746 17.09918225246594 1.5455004178014748 0 0 0
27662 3 4.676278901957285 17.099182826293113 1.5455091239717484 0 0 0
27661 3 7.793854668182473 17.099165433432763 1.5455158905662172 0 0 0
27660 3 10.91135679460534 17.09915440275792 1.545393565942628 0 0 0
27659 3 14.028856718292003 17.099159569711404 1.54550050863986 0 0 0
27658 3 17.14642140735317 17.09915453966596 1.545456470942539 0 0 0
27657 3 20.263975481225412 17.099153925307796 1.5454431323106526 0 0 0
27656 3 23.38151852580305 17.099154190789182 1.545437058159933 0 0 0
27679 3 26.49906221459628 17.09915309116816 1.5454342877832716 0 0 0
27680 3 29.616605122914148 17.09914925978324 1.5454405422795958 0 0 0
27681 3 32.73414820987161 17.099135465719673 1.5454537664688248 0 0 0
27682 3 35.8516803952053 17.09913152103863 1.5454664503532247 0 0 0
27855 3 38.969210771418915 17.099129664802476 1.5454642222673889 0 0 0
27706 3 3.1175253320293126 19.799012147555693 1.5453858330564088 0 0 0
27705 3 6.235025994103073 19.799015103475572 1.5455100636173922 0 0 0
27704 3 9.352595097796051 19.798978426759614 1.5455086951264065 0 0 0
27703 3 12.4701137196827 19.79897795679586 1.5455024139998246 0 0 0
27702 3 15.58765852675847 19.799014072127676 1.5454619125677522 0 0 0
27701 3 18.705205250096306 19.799020247123874 1.5454441616081138 0 0 0
27700 3 21.822751357206418 19.799021119332604 1.545439407018775 0 0 0
27699 3 24.940290309997515 19.799023916035907 1.5454355952069945 0 0 0
27698 3 28.057832719596117 19.799021760129428 1.5454364788759978 0 0 0
27697 3 31.175372270185278 19.79901545152655 1.5454429970827448 0 0 0
27696 3 34.29291023321762 19.799010951715488 1.5454512078588412 0 0 0
27707 3 37.41044503868816 19.799007728205485 1.5454555907380816 0 0 0
27695 3 1.5587683479523977 22.498839642000167 1.5454862719341071 0 0 0
27693 3 4.676280438120668 22.49883558654233 1.54549222568617 0 0 0
27692 3 7.793826964164883 22.49886216584017 1.545467434292912 0 0 0
27691 3 10.91136190405013 22.49886649005974 1.5454654440218605 0 0 0
27690 3 14.028896589644823 22.49886935399253 1.5454586211192678 0 0 0
27689 3 17.146438351840693 22.498885076354654 1.5454453468161546 0 0 0
27688 3 20.263983223777362 22.498891479854635 1.545438317986884 0 0 0
27687 3 23.381524792340585 22.498895022790332 1.5454396168904323 0 0 0
27686 3 26.499061502262425 22.49889627742413 1.5454394343420677 0 0 0
27685 3 29.616599223170667 22.498892945830406 1.5454433044831293 0 0 0
27684 3 32.73413495537598 22.49889045796861 1.545447310370787 0 0 0
27683 3 35.851672914680826 22.49888313415883 1.545449848562158 0 0 0
27736 3 3.1175231672962767 25.19873346959948 1.5454504829007556 0 0 0
27764 3 6.235055929041778 25.198729831372063 1.5454483837564101 0 0 0
27765 3 9.352597752371594 25.198739983575585 1.5454452235792437 0 0 0
27766 3 12.470137483883274 25.198745044970398 1.5454451339118431 0 0 0
27846 3 15.587674141014887 25.198751665415173 1.5454433341445541 0 0 0
27845 3 18.705216199175574 25.19876240465785 1.5454405512859732 0 0 0
27844 3 21.822758890133823 25.1987665956823 1.5454441630652864 0 0 0
27843 3 24.940299675431945 25.19877580204966 1.5454502258054368 0 0 0
27842 3 28.057829798632426 25.19877221283726 1.5454521656630507 0 0 0
27841 3 31.17535769816336 25.198771016282013 1.5454555695489347 0 0 0
27840 3 34.292896373821854 25.198759831427452 1.5454516866196584 0 0 0
27839 3 37.41043712656019 25.19875237936105 1.5454462705112202 0 0 0
27838 3 1.5587545015061883 27.898611824959005 1.5454374936354525 0 0 0
27837 3 4.676290096824639 27.89861131762666 1.5454345155167573 0 0 0
27836 3 7.793830645372636 27.898614239216858 1.5454304254324793 0 0 0
27847 3 10.911371348818806 27.89861979254166 1.5454325707360683 0 0 0
27835 3 14.028910868573577 27.898624490043076 1.5454372703623949 0 0 0
27833 3 17.14644924792026 27.898629654095302 1.5454402050036702 0 0 0
27832 3 20.263993744514483 27.898634859669727 1.545445973551134 0 0 0
27831 3 23.381537095515927 27.89864167090802 1.5454603342346844 0 0 0
27830 3 26.499086456588966 27.89866789390738 1.545493514489572 0 0 0
27829 3 29.616569897251036 27.898666406672056 1.5454963754559514 0 0 0
27828 3 32.73411658850588 27.898636938608895 1.545466613438271 0 0 0
27827 3 35.85165992212535 27.898627743997483 1.5454520334637825 0 0 0
27826 3 38.96920197895542 27.898621095399978 1.5454432085769656 0 0 0
23408 2 1.5587541754167746 0.8999503105053213 4.663281171055182 0 0 0
8905 1 3.1175185559820413 1.7998993094647793 3.10436517844403 0 0 0
23407 2 4.6762905381977395 0.899950097083981 4.663273706333511 0 0 0
8906 1 6.235067797973091 1.7999011575803212 3.104369985014009 0 0 0
23406 2 7.7938222495408045 0.8999526667569692 4.663286332997449 0 0 0
8908 1 9.35267710214707 1.7998510291496115 3.104413539694052 0 0 0
8910 1 12.470054841583748 1.7998503146639446 3.1044095366246087 0 0 0
23405 2 14.028906405825746 0.8999508160085965 4.663284824867058 0 0 0
8912 1 15.58766027828468 1.7998985804988363 3.104367458308545 0 0 0
23275 2 17.14643892178305 0.8999475282459656 4.663272097403254 0 0 0
8914 1 18.70520575854648 1.7998953260704926 3.1043559348593726 0 0 0
23274 2 20.263981370141632 0.8999440673415735 4.66326125765076 0 0 0
8892 1 21.82274810866331 1.799895442320536 3.104348695432669 0 0 0
23273 2 23.38152131454686 0.8999437811558645 4.663253771202151 0 0 0
8891 1 24.940290131450435 1.7998966934484 3.1043427533468413 0 0 0
8867 1 28.05783119363003 1.7998982290421357 3.1043418298421575 0 0 0
23170 2 26.49906156127825 0.8999435161139608 4.663250558789863 0 0 0
23141 2 29.6166041262587 0.8999460868499659 4.663247612497401 0 0 0
8869 1 31.17537198646035 1.799901412748611 3.1043378281442697 0 0 0
23140 2 32.73414209823399 0.8999453749662488 4.663244629561661 0 0 0
8872 1 34.292912576901095 1.7999024915634072 3.1043385083214527 0 0 0
23139 2 35.85168010375487 0.8999466077496681 4.663246933556305 0 0 0
8873 1 37.41045347435308 1.7999043289665004 3.1043444874128623 0 0 0
8874 1 1.5587467845073273 4.499767486967757 3.1043652852153345 0 0 0
23246 2 23.381513991876535 27.898623375508315 4.663276974974673 0 0 0
8875 1 4.676289044192388 4.499765807216364 3.1043561943061095 0 0 0
23138 2 3.1175220071001752 3.599813929952573 4.663266736239757 0 0 0
8878 1 7.793829730153174 4.499754770062266 3.1043633506937094 0 0 0
23137 2 6.2350548932378285 3.5998160994120663 4.663268627694982 0 0 0
23136 2 9.352587860804087 3.599813137473333 4.663279631037017 0 0 0
8880 1 10.911364952765975 4.499764027230626 3.104377822598143 0 0 0
23135 2 12.470142779527075 3.5998108827096083 4.663278051592637 0 0 0
8881 1 14.028899063969378 4.499753465949294 3.104360717947277 0 0 0
23134 2 15.58767511570991 3.5998139956093094 4.663265977244506 0 0 0
8883 1 17.146438024188917 4.49976382033457 3.1043497373441804 0 0 0
8884 1 20.263979298713345 4.499765172485022 3.104347605087003 0 0 0
23133 2 18.705209735528644 3.5998119116969813 4.663257256203905 0 0 0
8886 1 23.38152089240252 4.499765671133874 3.1043417501389983 0 0 0
23132 2 21.82275300845232 3.599811214262474 4.663251603685454 0 0 0
23142 2 24.940292494852674 3.599811061977595 4.663247782685215 0 0 0
8890 1 26.49906251253722 4.49976621876006 3.1043401963492205 0 0 0
23131 2 28.057833854156904 3.5998116143523142 4.663247064080001 0 0 0
8917 1 29.616603386962865 4.4997692163219805 3.104339503019239 0 0 0
23129 2 31.17537373525373 3.599813529597935 4.663245661929128 0 0 0
8945 1 32.734145070072444 4.499773178762236 3.1043414925738646 0 0 0
8946 1 35.8516841310616 4.499771738223494 3.104348165378786 0 0 0
23128 2 34.29291079467107 3.5998116265456876 4.663249141298076 0 0 0
23127 2 37.41044898828535 3.5998120479027444 4.663256722653385 0 0 0
23196 2 29.616590932745293 27.898615061640058 4.663290726364834 0 0 0
23125 2 1.558754715173187 6.299679981741083 4.663271665085383 0 0 0
8951 1 3.117516667368258 7.1996348840811075 3.104357745525016 0 0 0
23124 2 4.6762889758504205 6.299679080060554 4.663261087886435 0 0 0
8952 1 6.235058352142854 7.199633291223858 3.104353301625822 0 0 0
23123 2 7.793824803815048 6.299674665698227 4.663263569883676 0 0 0
8954 1 9.352596076156296 7.199632225015769 3.104360882887978 0 0 0
8955 1 12.470132343052695 7.1996315870408045 3.1043601674657837 0 0 0
23122 2 10.911364640307903 6.299683042229663 4.663274189881502 0 0 0
8957 1 15.587667996058464 7.199631222790645 3.1043512995026314 0 0 0
23121 2 14.028903953626122 6.299671925273743 4.663263048569327 0 0 0
23120 2 17.146441186630806 6.2996776599918345 4.6632553074272725 0 0 0
8960 1 18.705210058571687 7.1996341642459765 3.1043481596552738 0 0 0
23130 2 20.263982490593598 6.299678948818073 4.663253511113352 0 0 0
8961 1 21.822751652757585 7.199634875986338 3.1043448170440917 0 0 0
23143 2 23.381524518679665 6.299678080929664 4.66324866287663 0 0 0
8963 1 24.940292635019134 7.199635045602321 3.1043404519198123 0 0 0
8965 1 28.05783409488802 7.199636638288488 3.1043422980134614 0 0 0
23144 2 26.49906305525579 6.299678865013597 4.663247435858619 0 0 0
23145 2 29.616601595574725 6.29967786199811 4.663250653434731 0 0 0
8967 1 31.175375524560877 7.199639550274488 3.1043502719852247 0 0 0
23168 2 32.734144211317414 6.299679326948574 4.6632565678421365 0 0 0
8942 1 34.292921349254556 7.199645045629733 3.104360625552208 0 0 0
23167 2 35.85167881132694 6.299673922239417 4.663266376646425 0 0 0
23226 2 38.969212459868466 6.299678630839699 4.663273339292005 0 0 0
8929 1 37.410444351721836 7.199644589149822 3.104368884726664 0 0 0
8919 1 1.558745690390325 9.899504345189154 3.1043644910146124 0 0 0
23224 2 20.26398160373338 27.8986284676915 4.663260320585236 0 0 0
8920 1 4.676288080859957 9.899504893532937 3.104355585672287 0 0 0
23166 2 3.117521560420808 8.999546227200838 4.663263502172348 0 0 0
8921 1 7.793827221607387 9.899508009349299 3.1043595180450305 0 0 0
23165 2 6.235055772774864 8.999545413563816 4.663262147950902 0 0 0
23164 2 9.352593099391438 8.99954582764637 4.663267134694106 0 0 0
8924 1 10.911363862437893 9.899505742202052 3.104363076821759 0 0 0
23163 2 12.470134907829177 8.999545455608919 4.663267279502358 0 0 0
8926 1 14.028899961535569 9.8995056613776 3.1043591249861926 0 0 0
23162 2 15.587672208001925 8.999542713908914 4.663260664455049 0 0 0
8928 1 17.14643891524523 9.89950238307203 3.104351297095179 0 0 0
8930 1 20.263980944253294 9.899503371101707 3.104345301090226 0 0 0
23161 2 18.70521319499862 8.99954652522409 4.663254641376748 0 0 0
8931 1 23.381522687565994 9.899503999451076 3.1043436594969958 0 0 0
23160 2 21.82275279434625 8.999548027206432 4.6632513248567005 0 0 0
23159 2 24.94029399243218 8.999547084084238 4.6632485849273335 0 0 0
8934 1 26.499064747526017 9.899504263772085 3.104342020674346 0 0 0
23158 2 28.057830721894728 8.999547186861653 4.6632523485478625 0 0 0
8935 1 29.616606954338533 9.899504964032733 3.1043525576609903 0 0 0
23157 2 31.1753653743218 8.999543003559532 4.6632689442430895 0 0 0
8937 1 32.73414417739031 9.89950414227459 3.104377854028182 0 0 0
8938 1 35.851681465149994 9.899594495315217 3.1044124878727946 0 0 0
23156 2 34.292912506706905 8.999537825206556 4.663279854109459 0 0 0
23155 2 37.41044284581066 8.999538082322303 4.663287588882462 0 0 0
23248 2 26.499060176425278 27.898617359316265 4.663287664266694 0 0 0
23154 2 1.5587517039784826 11.699413616402042 4.6632744887397415 0 0 0
9076 1 3.1175183461972367 12.599375225834395 3.1043692728214256 0 0 0
23153 2 4.67628741098623 11.699409774267927 4.663271347735879 0 0 0
9208 1 6.235057858769737 12.59937846164865 3.104372916393594 0 0 0
23152 2 7.793828109882441 11.699414078053694 4.663276160296862 0 0 0
9210 1 9.35260199608735 12.59938203667247 3.1043772959347025 0 0 0
9212 1 12.47012415329688 12.5993816007393 3.1043746296013386 0 0 0
23151 2 10.91136440503493 11.699409898430426 4.663279417285155 0 0 0
9214 1 15.587668467828525 12.599373833740826 3.1043649060733225 0 0 0
23150 2 14.028901000673798 11.699414324755027 4.663272214828034 0 0 0
23149 2 17.14644305701537 11.699410637812797 4.663263551943099 0 0 0
9217 1 18.705209605841567 12.599372185490282 3.10435461517188 0 0 0
23148 2 20.263983734561492 11.699413456304518 4.663256267613807 0 0 0
9219 1 21.822751619057364 12.599372572692467 3.104347699397288 0 0 0
23147 2 23.381524560091623 11.699415666540093 4.663252161586031 0 0 0
9220 1 24.940294229059372 12.599371770962417 3.104343937528846 0 0 0
9222 1 28.057837161800038 12.599371484592869 3.104347591899475 0 0 0
23146 2 26.499064112905565 11.699414784100824 4.663251727753448 0 0 0
23119 2 29.616602825634477 11.699416800192042 4.663260843122001 0 0 0
9224 1 31.17538353545348 12.599373434873005 3.1043630978960923 0 0 0
23118 2 32.734133484725305 11.699418979487348 4.663281520867542 0 0 0
9226 1 34.292990680692554 12.599323462519061 3.1044145545244874 0 0 0
9227 1 37.41036890749511 12.599321622136422 3.1044225900241122 0 0 0
23225 2 17.146445906270245 27.8986288835356 4.663253633038751 0 0 0
9228 1 1.5587583571600137 15.29924702207653 3.104379069049208 0 0 0
9229 1 4.676283553576244 15.29924826993908 3.1043879625131794 0 0 0
23093 2 3.117516895185691 14.399278661629813 4.663285227006616 0 0 0
9218 1 7.793824847695752 15.299243644973732 3.104402549112582 0 0 0
23091 2 6.235049150149688 14.399279833837275 4.663294866022846 0 0 0
23090 2 9.352598076709713 14.39927396690659 4.663297126614558 0 0 0
9182 1 10.911361166393041 15.29933246528361 3.1044252122012184 0 0 0
23089 2 12.470130021289716 14.399276603197269 4.663293065838743 0 0 0
9184 1 14.028899772128902 15.29924166353931 3.104390917900861 0 0 0
23088 2 15.587679620664053 14.399279644025404 4.663280864676182 0 0 0
9186 1 17.146437229475016 15.299241453285083 3.104363941477729 0 0 0
9187 1 20.263979448972673 15.299241532819257 3.1043516142004135 0 0 0
23087 2 18.705214679565653 14.399283901270982 4.663263224486762 0 0 0
23086 2 21.82275476326 14.399286082180186 4.663254273843142 0 0 0
9188 1 23.381521928287565 15.29924084695626 3.1043441848044266 0 0 0
23085 2 24.94029343038534 14.399285664068879 4.663249504808373 0 0 0
9191 1 26.49906297863579 15.29924029374886 3.104341972182039 0 0 0
23084 2 28.057829340078623 14.399284908485457 4.663253051726807 0 0 0
9204 1 29.616603649068605 15.299237990401867 3.1043494940035403 0 0 0
23083 2 31.17536305232403 14.399283925466557 4.6632677655447905 0 0 0
9195 1 32.73414316733555 15.299225823600178 3.104367660256326 0 0 0
9196 1 35.851678300187906 15.299234505647334 3.1043914750514015 0 0 0
23082 2 34.29289674277364 14.39928092536801 4.6632877003751245 0 0 0
23092 2 37.410453188808816 14.399280261498498 4.663294449266889 0 0 0
9198 1 38.96921368160197 15.299222515970573 3.1043805252600363 0 0 0
23081 2 1.5587564487580354 17.099143076111105 4.663293883333559 0 0 0
9201 1 3.1175241869848653 17.999196878964494 3.1044247713553177 0 0 0
23079 2 4.676286613423013 17.099145808439822 4.663302406926236 0 0 0
9202 1 6.235067711239434 17.999109548225967 3.104410347742469 0 0 0
23077 2 7.793828253094439 17.099153597061616 4.663312891859383 0 0 0
9205 1 9.352670791641154 17.9990631988706 3.104432308565015 0 0 0
9231 1 12.470050676916847 17.99906112203077 3.1044267182029825 0 0 0
9233 1 15.587659468381922 17.999111547291648 3.1043757633374667 0 0 0
23076 2 14.028909505338085 17.099158241763224 4.6632944839117 0 0 0
23075 2 17.146443875245595 17.09915494832839 4.663269871596519 0 0 0
9262 1 18.705206811810026 17.99910947503178 3.104353809394232 0 0 0
23074 2 20.26398186801386 17.099155220322594 4.663257620785821 0 0 0
9263 1 21.82275033317449 17.999109462410082 3.1043472499130136 0 0 0
23073 2 23.3815242039466 17.099153298551524 4.663250464327208 0 0 0
9265 1 24.940291586961113 17.999110021085432 3.1043412434065973 0 0 0
9267 1 28.0578314515023 17.99910813525746 3.104342998454514 0 0 0
23072 2 26.4990604657634 17.09915297853528 4.663248290164533 0 0 0
23071 2 29.616596835313445 17.09915161578201 4.6632546914468 0 0 0
9269 1 31.175371783288888 17.99910307238442 3.1043517416253974 0 0 0
23080 2 32.734134436481106 17.099147034171107 4.66326699241995 0 0 0
9272 1 34.29290881509317 17.999101565752667 3.1043638096452475 0 0 0
23094 2 35.85167436810793 17.099156769499256 4.663283020424897 0 0 0
9273 1 37.41044607563326 17.999099521953237 3.1043690361500356 0 0 0
9274 1 1.558832515768182 20.698924543104017 3.1044153709068967 0 0 0
9275 1 4.676211406949271 20.69892383192015 3.1044228323856715 0 0 0
9277 1 7.79381811990199 20.69896542564613 3.1043908306204746 0 0 0
23095 2 6.235058663437849 19.799028141542365 4.663305955543112 0 0 0
23116 2 9.35258524508288 19.79902520971199 4.663301544454388 0 0 0
9279 1 10.911359659862065 20.69897272769554 3.104393706355022 0 0 0
23115 2 12.470139024903746 19.799022992711283 4.663296139681223 0 0 0
9281 1 14.028897829594921 20.69896373704035 3.1043769848645972 0 0 0
23114 2 15.587680093299419 19.799024653903956 4.663278245296754 0 0 0
9259 1 17.14643941598689 20.698975706732625 3.1043560675709 0 0 0
9258 1 20.263981466513236 20.698978226139033 3.104345881882685 0 0 0
23113 2 18.705215790757638 19.799023512726656 4.663258218907246 0 0 0
23112 2 21.822752985404637 19.79902395520585 4.663252879908434 0 0 0
9244 1 23.38152214638867 20.698979851860308 3.1043449737507536 0 0 0
23111 2 24.940293106130156 19.799021036068694 4.663249369269407 0 0 0
9236 1 26.49906146262768 20.698978759154937 3.1043426691703306 0 0 0
23110 2 28.057827762424996 19.799019531059677 4.663250612772677 0 0 0
9238 1 29.616599936215636 20.698976082134752 3.10434687431664 0 0 0
23109 2 31.175365393925997 19.799017165513167 4.663257064363553 0 0 0
9240 1 32.734137214763706 20.698974290509025 3.1043528029084624 0 0 0
9241 1 35.85167567869786 20.698971649677876 3.1043599064385954 0 0 0
23108 2 34.29290227027378 19.799019424318022 4.663265087988691 0 0 0
23107 2 37.4104455871918 19.799018262309946 4.663269104914008 0 0 0
23117 2 1.5587472628100134 22.498887628903432 4.663280743731704 0 0 0
9246 1 3.1175232397943016 23.398837323441725 3.1043779196327836 0 0 0
23106 2 4.676296321009413 22.498889680863716 4.663286247215979 0 0 0
9247 1 6.235058194699476 23.39882486528069 3.1043690591640147 0 0 0
23105 2 7.793830008106848 22.498889414366012 4.663283062818288 0 0 0
9249 1 9.35259504130168 23.39883746657993 3.1043651302655424 0 0 0
9251 1 12.47013313472975 23.398839348534665 3.104363071019417 0 0 0
23104 2 10.911365297353964 22.498897413718062 4.663282135985795 0 0 0
9253 1 15.58767180047974 23.39884152988798 3.1043551801407836 0 0 0
23103 2 14.028906280210846 22.498889945587806 4.663271582746263 0 0 0
23102 2 17.14644801542457 22.498891593000508 4.6632588848163365 0 0 0
9181 1 18.705213280167474 23.398846931463023 3.1043460536873884 0 0 0
23101 2 20.263983476322114 22.498890521049017 4.663252236732089 0 0 0
9283 1 21.822753706498926 23.39884875521947 3.104346636791835 0 0 0
23100 2 23.38152300203345 22.4988909313368 4.663253769162474 0 0 0
9178 1 24.940293432143523 23.39885172359593 3.1043492528990297 0 0 0
9103 1 28.057829151031232 23.39884951591863 3.1043501512117633 0 0 0
23099 2 26.499060508734857 22.49888729135821 4.663253566926321 0 0 0
23098 2 29.61659475063586 22.498886080334703 4.663256996839894 0 0 0
9105 1 31.175364374327984 23.398847979922802 3.1043547520615338 0 0 0
23097 2 32.734132004932476 22.498885979115546 4.663261345464669 0 0 0
9108 1 34.29290325115159 23.39884361978137 3.1043564555858687 0 0 0
23096 2 35.85167346993897 22.49888629898935 4.6632635328756225 0 0 0
9109 1 37.410443043050826 23.398840055236313 3.104355000846038 0 0 0
9110 1 1.5587546482818242 26.098702997602825 3.1043513233042894 0 0 0
9111 1 4.676291902959625 26.0987041034369 3.1043503717388052 0 0 0
23169 2 3.1175233960112343 25.19876112311372 4.663267515944417 0 0 0
9114 1 7.793827478499384 26.098705251435124 3.104346198564029 0 0 0
23171 2 6.235061581230602 25.198753068249292 4.66326174398605 0 0 0
23272 2 9.352597171203973 25.198761239627963 4.663259564856086 0 0 0
9116 1 10.911367192853008 26.098710032747057 3.104347786812506 0 0 0
23172 2 12.47013702743528 25.198761118876302 4.663259218283236 0 0 0
9117 1 14.028906289552905 26.09871263672115 3.104348727303785 0 0 0
23244 2 15.587676698454612 25.198759456410937 4.6632570898024115 0 0 0
9119 1 17.146444770952364 26.09871562075616 3.104347627956597 0 0 0
9120 1 20.263985468882204 26.09871840297514 3.104350554393757 0 0 0
23243 2 18.70521497122817 25.198758603814493 4.663254294741944 0 0 0
23242 2 21.822751586301035 25.198757037772733 4.663258287850468 0 0 0
9122 1 23.381524766875174 26.098720394670817 3.104358708841158 0 0 0
23241 2 24.940293615717582 25.198758360411112 4.663263726581055 0 0 0
9102 1 26.499068305440332 26.09872587773956 3.1043660936806923 0 0 0
23240 2 28.05782713088462 25.198751299526673 4.663268851464617 0 0 0
9113 1 29.61658822868118 26.09872445092699 3.10436823630953 0 0 0
23239 2 31.175360556520623 25.19875547681217 4.663268307253445 0 0 0
9087 1 32.734130664565065 26.09871611044226 3.104364452193206 0 0 0
9077 1 35.85166993277258 26.09871169397906 3.1043567037293305 0 0 0
23238 2 34.29290341041096 25.198753606757066 4.66326539552901 0 0 0
23237 2 37.41044204274471 25.198753745126442 4.663259877716103 0 0 0
9079 1 38.96920886465411 26.098708518009378 3.1043503415114526 0 0 0
23236 2 1.5587557966311105 27.89862207781407 4.663251132519454 0 0 0
23227 2 14.028906546396758 27.898629028037686 4.663250784357347 0 0 0
23235 2 4.676296207261843 27.89862518520612 4.663248180450643 0 0 0
23230 2 10.911367265105655 27.898628090064708 4.663246899710122 0 0 0
23232 2 7.793830503616677 27.898625777122486 4.663244523625111 0 0 0
23245 2 38.969208755627264 27.898620661757278 4.6632569406226185 0 0 0
27983 3 2.1234801012561493e-05 19.79901558965656 1.545496438209376 1 0 0
23231 2 38.96921568139401 17.099145209396553 4.663277596752438 0 0 0
23223 2 38.969213657845685 0.8999479988698138 4.663258695417992 0 0 0
23234 2 38.96921217596997 22.498884442899527 4.663262998779631 0 0 0
27825 3 38.96921226172926 22.49887889776839 1.5454491059807134 0 0 0
9243 1 38.969215257764006 20.69896854125322 3.1043591531238883 0 0 0
27487 3 3.117521892339882 30.598488855319932 1.5454299512461853 0 0 0
27486 3 6.2350640213870845 30.59849290979833 1.5454264245824987 0 0 0
27485 3 9.352604205599464 30.598496908533257 1.545430140222351 0 0 0
27471 3 12.470144256253354 30.59849936285664 1.5454353725791967 0 0 0
27455 3 15.58768307081871 30.59850219607437 1.5454409148502388 0 0 0
27454 3 18.705224192387405 30.59850468295238 1.545447309474118 0 0 0
27453 3 21.822771666662405 30.598507509316963 1.5454610474878157 0 0 0
27452 3 24.940333301995924 30.598513107344445 1.545502943909208 0 0 0
27451 3 28.057827684680184 30.598507479163473 1.545395209576211 0 0 0
27450 3 31.175319931938176 30.59850968793297 1.545508507234015 0 0 0
27449 3 34.29287789879507 30.598502241128564 1.5454680384655042 0 0 0
27448 3 37.41042409407481 30.598495970324176 1.545451746897031 0 0 0
27447 3 1.5587509447974763 33.29836652603213 1.5454380988459697 0 0 0
27446 3 4.6762948670206725 33.29837026534022 1.5454331346870243 0 0 0
27445 3 7.7938357833345355 33.29837326568435 1.5454368377425731 0 0 0
27444 3 10.911376057418929 33.29837434006927 1.545441999440356 0 0 0
27443 3 14.028917349488648 33.298378521077815 1.5454481031804095 0 0 0
27442 3 17.146454540400022 33.29838092306327 1.5454556063103446 0 0 0
27441 3 20.26398877188408 33.29837861042758 1.5454651588298118 0 0 0
27440 3 23.38153107448911 33.29837454993189 1.5454790596720627 0 0 0
27439 3 26.49907649662997 33.298337731262606 1.5455205705156427 0 0 0
27438 3 29.61658218918965 33.29834331494601 1.545524602615809 0 0 0
27437 3 32.734113321833036 33.29837033670213 1.5454864838289195 0 0 0
27436 3 35.85164642841782 33.29837264460748 1.5454688102024816 0 0 0
27562 3 38.96919145728279 33.298361670095844 1.545451047291486 0 0 0
27435 3 3.1175251544293037 35.99824443730627 1.5454509514583419 0 0 0
27434 3 6.235063388550563 35.998251856223966 1.5454529323749306 0 0 0
27433 3 9.352608405441371 35.998250270255305 1.545458072631012 0 0 0
27456 3 12.470152084766122 35.998254246551305 1.5454655931432555 0 0 0
27457 3 15.587691145351119 35.998263667571806 1.5454762018854349 0 0 0
27458 3 18.705217632545306 35.998258915580415 1.545482363455685 0 0 0
27459 3 21.822748112388762 35.99825478105127 1.5454857067626733 0 0 0
27483 3 24.940296872100642 35.99823176228537 1.5454961923445636 0 0 0
27482 3 28.057829921971333 35.99823049608819 1.545509168900855 0 0 0
27481 3 31.175370451586186 35.998250468876144 1.5455257314153095 0 0 0
27480 3 34.29286098337707 35.99825745285905 1.5455103592409447 0 0 0
27479 3 37.4104120264433 35.99823323960996 1.5454687274818186 0 0 0