LAMMPS data file via write_data, version 2 Aug 2023, timestep = 518, units = metal

38272 atoms
3 atom types

0 1247.0166572554808 xlo xhi
0 86.39585431995843 ylo yhi
0 50 zlo zhi
0 0 0 xy xz yz

Masses

1 95.94
2 32.065
3 32.065

Atoms # atomic

1 3 1.558769992601807 0.8999568318465146 1.545440030762863 0 0 0
2 3 4.6763116369638515 0.8999568312401841 1.5454400298918982 0 0 0
3 3 7.79385328012128 0.8999568312923826 1.5454400298150606 0 0 0
4 3 10.911394923247375 0.8999568311595216 1.5454400299540894 0 0 0
5 3 14.028936566356847 0.8999568313576264 1.5454400297703392 0 0 0
6 3 17.146478209517998 0.8999568313839706 1.54544002987429 0 0 0
7 3 20.264019852673957 0.8999568311393566 1.5454400299030335 0 0 0
8 3 23.381561495803442 0.8999568313979658 1.5454400298014321 0 0 0
9 3 26.499103138995455 0.8999568313755469 1.545440029884426 0 0 0
10 3 29.61664478220508 0.8999568313137952 1.5454400298188589 0 0 0
11 3 32.7341864252815 0.8999568311328021 1.5454400299026065 0 0 0
12 3 35.851728068428386 0.8999568311534774 1.5454400299015358 0 0 0
401 3 38.96926971151764 0.8999568313057246 1.5454400297787023 0 0 0
13 3 3.117540815739986 3.5998272783880116 1.5454400295964186 0 0 0
14 3 6.235082458457953 3.5998272783653897 1.545440030099481 0 0 0
15 3 9.35262410168345 3.599827278396234 1.5454400300872841 0 0 0
16 3 12.470165744868059 3.599827278414131 1.545440030098078 0 0 0
17 3 15.587707387995243 3.5998272783758756 1.5454400300823856 0 0 0
18 3 18.70524903108807 3.5998272784102583 1.5454400300752145 0 0 0
19 3 21.82279067431571 3.599827278387298 1.5454400301083702 0 0 0
20 3 24.94033231740007 3.5998272783462553 1.5454400300436528 0 0 0
21 3 28.057873960480364 3.599827278357951 1.545440030082402 0 0 0
22 3 31.17541560355287 3.5998272783957206 1.5454400301008253 0 0 0
23 3 34.292957246749985 3.599827278425911 1.5454400301190314 0 0 0
24 3 37.41049888988935 3.5998272783636245 1.5454400299867215 0 0 0
25 3 1.5587699925908736 6.299697726352053 1.5454400305614564 0 0 0
26 3 4.676311636942776 6.299697725967767 1.5454400300558024 0 0 0
27 3 7.7938532801248535 6.299697725910195 1.5454400300069733 0 0 0
28 3 10.911394923251008 6.299697725954797 1.545440030041174 0 0 0
29 3 14.028936566327316 6.299697725920806 1.545440030008351 0 0 0
30 3 17.146478209520478 6.299697725982373 1.545440030062661 0 0 0
31 3 20.264019852669644 6.299697725911007 1.5454400299959932 0 0 0
32 3 23.381561495871082 6.299697725929417 1.5454400300226196 0 0 0
33 3 26.49910313902328 6.299697725943749 1.545440030050309 0 0 0
34 3 29.61664478223443 6.29969772594071 1.5454400300286946 0 0 0
35 3 32.73418642526773 6.299697725876433 1.5454400299700377 0 0 0
36 3 35.85172806830199 6.299697725895246 1.5454400299926518 0 0 0
400 3 38.969269711499265 6.2996977260662765 1.5454400301417641 0 0 0
37 3 3.117540815681809 8.999568173356943 1.545440029634989 0 0 0
38 3 6.235082458554007 8.999568173331053 1.5454400299732545 0 0 0
39 3 9.352624101672628 8.999568173379442 1.5454400300373083 0 0 0
40 3 12.470165744875938 8.99956817344214 1.545440030012136 0 0 0
41 3 15.58770738797517 8.999568173346615 1.5454400299992368 0 0 0
42 3 18.705249031108377 8.999568173435224 1.545440030017351 0 0 0
43 3 21.822790674300045 8.999568173345674 1.5454400299890019 0 0 0
44 3 24.94033231744195 8.999568173373504 1.5454400299958804 0 0 0
45 3 28.057873960491467 8.999568173343903 1.545440029971691 0 0 0
46 3 31.175415603571615 8.999568173387182 1.545440030010829 0 0 0
47 3 34.29295724681538 8.9995681734149 1.5454400300930582 0 0 0
48 3 37.41049888999704 8.999568173386647 1.5454400300074767 0 0 0
49 3 1.5587699926296308 11.69943862141067 1.545440030915075 0 0 0
50 3 4.67631163695223 11.699438620925337 1.5454400300930458 0 0 0
51 3 7.79385328007792 11.699438620849687 1.5454400300501143 0 0 0
52 3 10.911394923240056 11.699438620860086 1.5454400300095819 0 0 0
53 3 14.028936566381988 11.699438620860866 1.5454400300180926 0 0 0
54 3 17.14647820955362 11.699438620886937 1.545440030050813 0 0 0
55 3 20.264019852663385 11.699438620881685 1.5454400300104096 0 0 0
56 3 23.381561495729343 11.69943862093013 1.5454400300579314 0 0 0
57 3 26.499103138905564 11.699438620979546 1.5454400300996722 0 0 0
58 3 29.616644782176216 11.69943862088302 1.5454400300226674 0 0 0
59 3 32.7341864252057 11.699438620787296 1.5454400299606579 0 0 0
60 3 35.851728068350276 11.699438620874915 1.5454400300039999 0 0 0
397 3 38.969269711459795 11.699438620847571 1.545440030059677 0 0 0
61 3 3.117540815617652 14.399309068500642 1.5454400296547492 0 0 0
62 3 6.235082458553467 14.399309068407595 1.5454400299743198 0 0 0
63 3 9.352624101680021 14.399309068384706 1.545440030024523 0 0 0
64 3 12.470165744846485 14.399309068390318 1.5454400300371907 0 0 0
65 3 15.587707388055193 14.399309068407888 1.545440030059737 0 0 0
66 3 18.70524903113809 14.39930906840394 1.5454400299705613 0 0 0
67 3 21.82279067429457 14.399309068493656 1.5454400300262519 0 0 0
68 3 24.94033231732716 14.39930906844348 1.5454400299158773 0 0 0
69 3 28.05787396040579 14.39930906841679 1.5454400300227624 0 0 0
70 3 31.175415603609693 14.399309068387222 1.5454400299971571 0 0 0
71 3 34.29295724676537 14.39930906836962 1.5454400300730855 0 0 0
72 3 37.410498890001755 14.399309068438347 1.545440030020606 0 0 0
73 3 1.5587699925793248 17.099179516380083 1.5454400306750753 0 0 0
74 3 4.676311636978781 17.099179516019287 1.5454400300562827 0 0 0
75 3 7.7938532801165 17.099179515948915 1.5454400300271132 0 0 0
76 3 10.911394923271732 17.099179515974903 1.5454400300570854 0 0 0
77 3 14.028936566347783 17.09917951594919 1.5454400300183324 0 0 0
78 3 17.146478209517678 17.099179516025107 1.5454400300652167 0 0 0
79 3 20.26401985263455 17.099179515978676 1.5454400300722126 0 0 0
80 3 23.381561495775987 17.099179515982613 1.5454400300572024 0 0 0
81 3 26.49910313892591 17.09917951597358 1.5454400300948086 0 0 0
82 3 29.616644782129228 17.0991795158862 1.5454400299968756 0 0 0
83 3 32.73418642514527 17.099179515905043 1.5454400300283337 0 0 0
84 3 35.85172806831175 17.09917951595572 1.5454400299520412 0 0 0
395 3 38.96926971149036 17.099179515990933 1.545440030114938 0 0 0
85 3 3.1175408157581046 19.799049963479096 1.5454400294928166 0 0 0
86 3 6.235082458420396 19.799049963424213 1.5454400299981648 0 0 0
87 3 9.352624101680727 19.799049963370237 1.5454400299973157 0 0 0
88 3 12.470165744792949 19.799049963417353 1.545440029962128 0 0 0
89 3 15.587707387946043 19.799049963370756 1.5454400300204514 0 0 0
90 3 18.705249031106483 19.799049963455555 1.5454400299991955 0 0 0
91 3 21.82279067427392 19.79904996341997 1.5454400299908466 0 0 0
92 3 24.94033231738637 19.79904996333887 1.54544002992717 0 0 0
93 3 28.057873960516556 19.799049963344757 1.5454400300204627 0 0 0
94 3 31.1754156035889 19.79904996339195 1.5454400300302917 0 0 0
95 3 34.29295724680066 19.79904996339008 1.5454400300293165 0 0 0
96 3 37.410498889962554 19.7990499633508 1.5454400299533597 0 0 0
97 3 1.5587699926113934 22.498920411436462 1.5454400307109142 0 0 0
98 3 4.676311637001451 22.49892041097941 1.5454400300425346 0 0 0
99 3 7.793853280135174 22.498920410846292 1.5454400300356301 0 0 0
100 3 10.911394923228741 22.498920410922217 1.5454400301028324 0 0 0
101 3 14.028936566414352 22.498920410807575 1.545440030021247 0 0 0
102 3 17.14647820948728 22.498920410878718 1.5454400300634625 0 0 0
103 3 20.264019852611273 22.49892041090971 1.545440030059696 0 0 0
104 3 23.381561495737152 22.498920410877183 1.5454400300765248 0 0 0
105 3 26.499103138895123 22.498920410888687 1.545440030103173 0 0 0
106 3 29.61664478215205 22.498920410867132 1.5454400299992666 0 0 0
107 3 32.734186425168225 22.498920410918146 1.5454400300756705 0 0 0
108 3 35.85172806830082 22.498920410924615 1.5454400300197708 0 0 0
393 3 38.96926971144731 22.498920410874874 1.5454400300660103 0 0 0
109 3 3.1175408156557287 25.198790858335993 1.5454400294930868 0 0 0
110 3 6.235082458452472 25.19879085837142 1.545440030032046 0 0 0
111 3 9.3526241016575 25.198790858370984 1.5454400299733329 0 0 0
112 3 12.47016574489114 25.19879085835883 1.5454400300165845 0 0 0
113 3 15.587707387937677 25.198790858382733 1.5454400300250206 0 0 0
114 3 18.70524903108254 25.198790858387813 1.5454400300002586 0 0 0
115 3 21.822790674314586 25.19879085846953 1.5454400300128912 0 0 0
116 3 24.94033231731704 25.198790858359484 1.5454400299117912 0 0 0
117 3 28.05787396037073 25.198790858308573 1.5454400300148818 0 0 0
118 3 31.175415603514622 25.198790858444077 1.5454400300172284 0 0 0
119 3 34.292957246717826 25.198790858506904 1.5454400299741522 0 0 0
120 3 37.410498889973546 25.198790858391884 1.5454400299981448 0 0 0
121 3 1.5587699925706948 27.898661306277468 1.5454400306744043 0 0 0
122 3 4.676311637041506 27.89866130576566 1.5454400299607014 0 0 0
123 3 7.793853280139241 27.898661305814787 1.5454400300017577 0 0 0
124 3 10.911394923245624 27.898661305764893 1.5454400300543238 0 0 0
125 3 14.0289365664335 27.898661305875947 1.5454400299543791 0 0 0
126 3 17.146478209487757 27.898661305849956 1.5454400300806888 0 0 0
127 3 20.264019852625324 27.898661305825247 1.5454400299953956 0 0 0
128 3 23.38156149571979 27.89866130587542 1.5454400300164632 0 0 0
129 3 26.499103138942214 27.898661305850453 1.545440030106304 0 0 0
130 3 29.61664478223724 27.898661305859978 1.5454400300084175 0 0 0
131 3 32.73418642533593 27.89866130584574 1.545440030018092 0 0 0
132 3 35.85172806846589 27.89866130580429 1.5454400299977769 0 0 0
391 3 38.96926971148773 27.898661305814255 1.5454400300202062 0 0 0
133 2 1.558769992606907 0.8999568318760486 4.663253302500393 0 0 0
134 2 4.676311636988982 0.8999568312620538 4.663253303483524 0 0 0
135 1 3.1175408150866843 1.799913684024581 3.1043466666927215 0 0 0
136 1 6.235082458677534 1.799913684296559 3.1043466666606396 0 0 0
137 2 7.793853280115344 0.8999568312976848 4.663253303517817 0 0 0
138 1 9.35262410175467 1.7999136842255756 3.1043466666728605 0 0 0
139 2 10.911394923240323 0.8999568311590271 4.663253303381012 0 0 0
140 1 12.470165744863824 1.7999136841592254 3.104346666666145 0 0 0
141 2 14.02893656635953 0.8999568313553271 4.6632533035457815 0 0 0
142 1 15.587707388137767 1.7999136841957735 3.104346666663629 0 0 0
143 2 17.146478209517856 0.8999568313788696 4.663253303459574 0 0 0
144 2 20.26401985268095 0.8999568311404855 4.6632533034380454 0 0 0
145 1 18.70524903100452 1.7999136841915704 3.1043466666650383 0 0 0
146 1 21.822790674317933 1.7999136842509902 3.104346666668144 0 0 0
147 2 23.38156149580505 0.8999568313948932 4.663253303527301 0 0 0
148 1 24.94033231739081 1.7999136842447998 3.104346666666173 0 0 0
149 2 26.499103138997466 0.8999568313781525 4.663253303440998 0 0 0
150 1 28.0578739602302 1.7999136842695702 3.1043466666637665 0 0 0
151 2 29.61664478221576 0.8999568313226683 4.6632533035195305 0 0 0
152 1 31.175415603450638 1.7999136841846175 3.1043466666735386 0 0 0
153 2 32.73418642527787 0.8999568311492562 4.6632533034284664 0 0 0
154 2 35.85172806843447 0.8999568311515337 4.663253303423723 0 0 0
155 1 34.29295724672114 1.7999136842226084 3.1043466666713777 0 0 0
156 1 37.41049888983389 1.799913684219905 3.1043466666654407 0 0 0
390 2 38.969269711519445 0.8999568312953187 4.663253303556735 0 0 0
157 1 1.558769993781927 4.499784131733086 3.104346666645306 0 0 0
158 1 4.676311637171564 4.499784131796703 3.104346666668411 0 0 0
159 2 3.117540815784622 3.599827278358396 4.6632533037651305 0 0 0
160 1 7.793853280085615 4.499784131795835 3.1043466666704274 0 0 0
161 2 6.2350824584420375 3.599827278370485 4.663253303230483 0 0 0
162 2 9.352624101683398 3.5998272783918903 4.6632533032470596 0 0 0
163 1 10.911394923290857 4.499784131717528 3.104346666660261 0 0 0
164 2 12.470165744867995 3.5998272784219782 4.663253303230439 0 0 0
165 1 14.028936566284221 4.499784131788338 3.10434666667256 0 0 0
166 2 15.587707387996462 3.5998272783811074 4.663253303263334 0 0 0
167 1 17.14647820956807 4.499784131650077 3.1043466666649424 0 0 0
168 1 20.26401985264975 4.499784131814263 3.1043466666662893 0 0 0
169 2 18.705249031085618 3.599827278408824 4.66325330324424 0 0 0
170 1 23.381561495632155 4.499784131727303 3.104346666667104 0 0 0
171 2 21.822790674321464 3.599827278383375 4.663253303227519 0 0 0
172 2 24.940332317398717 3.5998272783532124 4.663253303293888 0 0 0
173 1 26.499103139043005 4.499784131736125 3.104346666668438 0 0 0
174 2 28.057873960481388 3.5998272783594056 4.663253303249358 0 0 0
175 1 29.61664478226858 4.499784131733765 3.1043466666693225 0 0 0
176 2 31.175415603554512 3.5998272783933736 4.66325330324745 0 0 0
177 1 32.734186425518836 4.499784131798115 3.1043466666651995 0 0 0
178 1 35.851728068332484 4.4997841317873535 3.104346666664972 0 0 0
179 2 34.29295724674478 3.599827278429827 4.663253303212109 0 0 0
380 2 38.96926971149033 27.898661305816656 4.663253303327506 0 0 0
181 2 37.410498889889716 3.5998272783644003 4.663253303349207 0 0 0
182 2 1.558769992534195 6.299697726365669 4.6632533026506575 0 0 0
183 2 4.676311636998893 6.299697725937611 4.663253303323916 0 0 0
184 1 3.1175408151342325 7.199654579024005 3.104346666668365 0 0 0
185 1 6.235082458613159 7.199654579329291 3.104346666659643 0 0 0
186 2 7.793853280118207 6.299697725907296 4.663253303317318 0 0 0
187 1 9.352624101760446 7.199654579294563 3.1043466666755832 0 0 0
188 2 10.91139492324617 6.299697725961343 4.663253303299095 0 0 0
189 1 12.470165744887463 7.199654579131413 3.1043466666625354 0 0 0
190 2 14.028936566330424 6.299697725915068 4.663253303320564 0 0 0
191 1 15.587707388160334 7.199654579347708 3.1043466666640573 0 0 0
192 2 17.14647820951864 6.299697725985653 4.663253303275741 0 0 0
193 2 20.264019852671176 6.299697725913823 4.663253303333359 0 0 0
194 1 18.705249031070654 7.199654579179882 3.104346666670421 0 0 0
195 1 21.822790674209795 7.1996545793884605 3.1043466666608586 0 0 0
196 2 23.381561495880746 6.299697725925564 4.663253303315046 0 0 0
197 1 24.940332317293617 7.199654579303968 3.1043466666739366 0 0 0
198 2 26.499103139016352 6.299697725942181 4.663253303284463 0 0 0
199 1 28.057873960272772 7.1996545793519395 3.104346666656667 0 0 0
200 2 29.6166447822454 6.2996977259365705 4.663253303290285 0 0 0
201 1 31.17541560335569 7.199654579242407 3.1043466666669723 0 0 0
202 2 32.734186425269115 6.299697725872694 4.663253303363961 0 0 0
203 2 35.85172806830166 6.299697725894602 4.663253303341009 0 0 0
204 1 34.29295724685654 7.199654579276182 3.104346666666833 0 0 0
205 1 37.41049889023035 7.199654579259614 3.1043466666682367 0 0 0
387 2 38.96926971150031 6.299697726068424 4.663253303196782 0 0 0
206 1 1.5587699927648484 9.899525026089414 3.1043466666114985 0 0 0
207 1 4.676311637082859 9.899525026946318 3.1043466666827633 0 0 0
208 2 3.117540815694879 8.999568173371062 4.663253303629 0 0 0
209 1 7.793853280108046 9.899525026935242 3.104346666660846 0 0 0
210 2 6.235082458560017 8.999568173344048 4.663253303360148 0 0 0
211 2 9.352624101676716 8.999568173370017 4.663253303303182 0 0 0
212 1 10.911394923253646 9.899525026825646 3.1043466666669035 0 0 0
213 2 12.470165744871077 8.999568173444308 4.6632533033154715 0 0 0
214 1 14.028936566269612 9.899525026834208 3.1043466666703 0 0 0
215 2 15.587707387977547 8.999568173349791 4.66325330333681 0 0 0
216 1 17.14647820961392 9.899525026805708 3.104346666666639 0 0 0
217 1 20.264019852593105 9.899525026868966 3.1043466666669803 0 0 0
218 2 18.70524903110652 8.999568173434035 4.6632533033126755 0 0 0
219 1 23.38156149570347 9.899525026870542 3.1043466666675807 0 0 0
220 2 21.822790674302297 8.999568173346653 4.6632533033434855 0 0 0
221 2 24.94033231744265 8.99956817336674 4.663253303339787 0 0 0
222 1 26.499103138917253 9.899525026732151 3.104346666664644 0 0 0
223 2 28.057873960494426 8.999568173356534 4.663253303358265 0 0 0
224 1 29.616644782301606 9.899525026818036 3.1043466666747164 0 0 0
225 2 31.175415603570087 8.999568173395362 4.663253303332673 0 0 0
226 1 32.73418642542531 9.899525026968293 3.104346666666132 0 0 0
227 1 35.851728068179206 9.89952502681434 3.104346666667915 0 0 0
228 2 34.29295724681291 8.999568173416794 4.663253303238275 0 0 0
229 1 38.96926971143772 9.899525026830307 3.104346666661966 0 0 0
230 2 37.410498889992226 8.999568173382732 4.663253303322395 0 0 0
231 2 1.5587699926253333 11.699438621399679 4.6632533022979334 0 0 0
232 2 4.676311636978214 11.699438620930707 4.663253303310489 0 0 0
233 1 3.1175408151736663 12.599395473975473 3.1043466667029165 0 0 0
234 1 6.235082458703206 12.599395474278662 3.1043466666586648 0 0 0
235 2 7.793853280064278 11.699438620853302 4.663253303272686 0 0 0
236 1 9.352624101731985 12.599395474396022 3.104346666672401 0 0 0
237 2 10.91139492323872 11.69943862085978 4.663253303326486 0 0 0
238 1 12.470165744915638 12.59939547440006 3.1043466666629786 0 0 0
239 2 14.028936566386577 11.699438620857938 4.663253303313566 0 0 0
240 1 15.587707387992207 12.599395474410214 3.104346666666818 0 0 0
241 2 17.146478209551372 11.699438620886827 4.663253303285799 0 0 0
242 2 20.264019852663342 11.69943862088209 4.663253303322832 0 0 0
243 1 18.705249031055324 12.599395474273255 3.1043466666646045 0 0 0
244 1 21.822790674413 12.599395474100747 3.1043466666650925 0 0 0
245 2 23.381561495732118 11.6994386209295 4.663253303270502 0 0 0
246 1 24.94033231763646 12.59939547408197 3.1043466666686443 0 0 0
247 2 26.499103138903134 11.699438620977869 4.663253303239799 0 0 0
248 1 28.057873960398886 12.59939547434465 3.1043466666635657 0 0 0
249 2 29.616644782178312 11.699438620879986 4.663253303311738 0 0 0
250 1 31.175415603472704 12.599395474318722 3.1043466666645796 0 0 0
251 2 32.73418642520464 11.699438620780759 4.663253303374743 0 0 0
252 2 35.85172806834955 11.699438620875052 4.663253303334318 0 0 0
253 1 34.29295724698461 12.59939547448463 3.1043466666659785 0 0 0
254 1 37.41049888999774 12.599395474306686 3.1043466666677344 0 0 0
385 2 38.96926971146085 11.69943862085471 4.663253303266472 0 0 0
255 1 1.5587699931189798 15.299265921017083 3.104346666632489 0 0 0
256 1 4.6763116370938445 15.299265921697751 3.104346666669004 0 0 0
257 2 3.117540815667335 14.399309068472185 4.6632533036739225 0 0 0
258 1 7.793853280057632 15.299265921698716 3.1043466666671486 0 0 0
259 2 6.235082458539279 14.399309068404763 4.663253303353937 0 0 0
260 2 9.35262410168266 14.399309068382362 4.663253303309278 0 0 0
261 1 10.91139492327394 15.29926592169316 3.1043466666638566 0 0 0
262 2 12.470165744841246 14.399309068391107 4.663253303290622 0 0 0
263 1 14.028936566329682 15.299265921715376 3.104346666665839 0 0 0
264 2 15.587707388056787 14.399309068409881 4.663253303275393 0 0 0
265 1 17.146478209337964 15.299265921560892 3.104346666669027 0 0 0
266 1 20.264019852716746 15.299265921725286 3.1043466666674475 0 0 0
267 2 18.705249031134375 14.399309068407593 4.663253303356988 0 0 0
268 1 23.38156149563256 15.299265921610592 3.104346666665897 0 0 0
269 2 21.822790674296566 14.399309068497272 4.663253303308105 0 0 0
270 2 24.94033231732498 14.3993090684389 4.663253303421557 0 0 0
271 1 26.49910313928708 15.299265921659575 3.1043466666691266 0 0 0
272 2 28.057873960406127 14.399309068415095 4.663253303303586 0 0 0
273 1 29.616644782236097 15.299265921793703 3.1043466666684014 0 0 0
274 2 31.17541560360643 14.399309068390288 4.663253303332591 0 0 0
275 1 32.734186425414414 15.299265921807688 3.1043466666663506 0 0 0
276 1 35.85172806831503 15.299265921651607 3.104346666664804 0 0 0
277 2 34.29295724676877 14.399309068369801 4.663253303251631 0 0 0
278 1 38.96926971135442 15.299265921636207 3.1043466666679875 0 0 0
279 2 37.410498890006146 14.399309068436903 4.663253303316465 0 0 0
280 2 1.5587699925178955 17.099179516400234 4.6632533025065195 0 0 0
281 2 4.676311637036957 17.09917951600298 4.663253303329378 0 0 0
282 1 3.1175408150483994 17.999136368966234 3.104346666668514 0 0 0
283 1 6.235082458635402 17.99913636913976 3.104346666662361 0 0 0
284 2 7.793853280108681 17.099179515949654 4.663253303298975 0 0 0
285 1 9.352624101724723 17.99913636923111 3.1043466666716077 0 0 0
286 2 10.911394923266203 17.099179515976846 4.663253303287112 0 0 0
287 1 12.470165744842358 17.999136369077345 3.1043466666716037 0 0 0
288 2 14.028936566348822 17.099179515951796 4.663253303312213 0 0 0
289 1 15.587707388150058 17.999136369212657 3.104346666666462 0 0 0
290 2 17.14647820951352 17.099179516024687 4.663253303275658 0 0 0
291 2 20.264019852641418 17.09917951598 4.663253303262628 0 0 0
292 1 18.70524903116822 17.999136369038858 3.1043466666639508 0 0 0
293 1 21.82279067431033 17.999136369076208 3.1043466666708026 0 0 0
294 2 23.38156149577271 17.099179515984293 4.663253303275132 0 0 0
295 1 24.940332317539394 17.999136369209623 3.1043466666621615 0 0 0
296 2 26.49910313893137 17.099179515974967 4.663253303229757 0 0 0
297 1 28.05787396035054 17.999136369318304 3.104346666662592 0 0 0
298 2 29.61664478213288 17.099179515890444 4.663253303344495 0 0 0
299 1 31.175415603748473 17.999136369192556 3.104346666667067 0 0 0
300 2 32.73418642514565 17.099179515908617 4.663253303308238 0 0 0
301 2 35.851728068309534 17.09917951595863 4.663253303383881 0 0 0
302 1 34.29295724695223 17.999136369270058 3.104346666670646 0 0 0
303 1 37.410498890122895 17.999136369238876 3.1043466666649326 0 0 0
383 2 38.969269711489446 17.09917951598846 4.663253303209337 0 0 0
304 1 1.5587699935283388 20.699006816301722 3.104346666646232 0 0 0
305 1 4.676311637259881 20.699006816717052 3.104346666671161 0 0 0
306 2 3.1175408157475966 19.79904996350855 4.663253303805063 0 0 0
307 1 7.793853280091033 20.69900681694453 3.104346666673943 0 0 0
308 2 6.235082458427733 19.799049963427027 4.6632533033407535 0 0 0
309 2 9.352624101672133 19.799049963356975 4.663253303342244 0 0 0
310 1 10.911394923352505 20.699006816836967 3.1043466666570043 0 0 0
311 2 12.470165744798495 19.799049963412795 4.663253303357535 0 0 0
312 1 14.028936566458428 20.69900681699083 3.1043466666620034 0 0 0
313 2 15.587707387948456 19.79904996336876 4.663253303317424 0 0 0
314 1 17.146478209589503 20.699006816863577 3.10434666667148 0 0 0
315 1 20.264019852645543 20.699006816849717 3.1043466666609265 0 0 0
316 2 18.705249031105463 19.79904996345099 4.6632533033233425 0 0 0
317 1 23.38156149569996 20.699006816990053 3.1043466666730604 0 0 0
318 2 21.82279067427863 19.79904996341348 4.6632533033537875 0 0 0
319 2 24.940332317381422 19.799049963342657 4.663253303408554 0 0 0
320 1 26.499103139025518 20.699006816944138 3.1043466666683353 0 0 0
321 2 28.057873960522823 19.79904996334866 4.663253303321038 0 0 0
322 1 29.616644782186903 20.699006816830174 3.104346666675194 0 0 0
323 2 31.17541560358055 19.79904996339068 4.663253303299019 0 0 0
324 1 32.73418642540307 20.69900681691826 3.10434666665783 0 0 0
325 1 35.85172806821486 20.6990068168812 3.104346666669852 0 0 0
326 2 34.292957246803645 19.799049963383982 4.663253303305403 0 0 0
327 1 38.969269711507835 20.69900681690682 3.104346666669273 0 0 0
328 2 37.41049888996426 19.79904996335396 4.663253303383624 0 0 0
329 2 1.5587699926215683 22.498920411412023 4.663253302561752 0 0 0
330 2 4.6763116370066 22.498920410970133 4.6632533033232955 0 0 0
331 1 3.1175408150432418 23.398877263991125 3.1043466666760877 0 0 0
332 1 6.235082458570828 23.398877264268993 3.1043466666637336 0 0 0
333 2 7.793853280117767 22.49892041083919 4.663253303286506 0 0 0
334 1 9.352624101854705 23.398877264184474 3.104346666656967 0 0 0
335 2 10.911394923244137 22.498920410927575 4.6632533032261705 0 0 0
336 1 12.470165744708515 23.398877264326245 3.1043466666813777 0 0 0
337 2 14.028936566410348 22.4989204108146 4.663253303320576 0 0 0
338 1 15.587707388061911 23.3988772642889 3.1043466666638944 0 0 0
339 2 17.146478209484798 22.498920410878014 4.663253303270483 0 0 0
340 2 20.264019852611884 22.49892041091287 4.663253303267787 0 0 0
341 1 18.70524903127185 23.398877264185998 3.1043466666672845 0 0 0
342 1 21.82279067438449 23.398877264081992 3.1043466666681603 0 0 0
343 2 23.3815614957286 22.49892041086804 4.663253303252416 0 0 0
344 1 24.940332317628176 23.398877264180854 3.104346666656086 0 0 0
345 2 26.499103138902928 22.498920410882917 4.663253303220447 0 0 0
346 1 28.057873960400855 23.398877264457926 3.104346666665242 0 0 0
347 2 29.616644782153173 22.498920410862244 4.66325330333709 0 0 0
348 1 31.17541560374201 23.398877264086863 3.104346666666715 0 0 0
349 2 32.73418642516725 22.498920410921354 4.663253303257576 0 0 0
350 2 35.85172806830097 22.498920410922285 4.663253303303793 0 0 0
351 1 34.29295724696054 23.39887726392619 3.1043466666694743 0 0 0
352 1 37.41049889007179 23.398877264224136 3.1043466666618644 0 0 0
381 2 38.96926971145135 22.498920410867747 4.663253303275812 0 0 0
353 1 1.5587699939579083 26.09874771185705 3.104346666671629 0 0 0
354 1 4.676311637279041 26.098747712113987 3.104346666656798 0 0 0
355 2 3.1175408156519753 25.198790858362337 4.663253303828827 0 0 0
356 1 7.793853280084493 26.098747711939314 3.104346666675605 0 0 0
357 2 6.235082458464701 25.19879085836249 4.6632533033049 0 0 0
358 2 9.352624101662823 25.198790858377 4.663253303355423 0 0 0
359 1 10.911394923260769 26.098747712050127 3.1043466666699 0 0 0
360 2 12.470165744879624 25.198790858352275 4.66325330332247 0 0 0
361 1 14.028936566406033 26.098747711716165 3.104346666655551 0 0 0
362 2 15.587707387941075 25.198790858380768 4.663253303303663 0 0 0
363 1 17.14647820957422 26.09874771192325 3.104346666671245 0 0 0
364 1 20.264019852705207 26.09874771191341 3.1043466666622415 0 0 0
365 2 18.7052490310809 25.198790858388673 4.663253303336303 0 0 0
366 1 23.381561495601577 26.09874771171955 3.104346666672862 0 0 0
367 2 21.822790674318203 25.198790858475586 4.663253303325033 0 0 0
368 2 24.940332317316024 25.19879085836695 4.6632533034212535 0 0 0
369 1 26.49910313931596 26.09874771189935 3.1043466666731447 0 0 0
370 2 28.0578739603694 25.198790858312684 4.663253303321713 0 0 0
371 1 29.61664478244213 26.09874771186127 3.1043466666645125 0 0 0
372 2 31.175415603514057 25.198790858442813 4.663253303314756 0 0 0
373 1 32.73418642551149 26.098747711856475 3.1043466666653403 0 0 0
374 1 35.85172806833761 26.098747711954672 3.1043466666691715 0 0 0
375 2 34.29295724671807 25.198790858509444 4.663253303364322 0 0 0
376 1 38.96926971142689 26.09874771186562 3.1043466666645188 0 0 0
377 2 37.41049888997301 25.198790858395814 4.6632533033307295 0 0 0
378 2 1.558769992581956 27.898661306265158 4.6632533027210075 0 0 0
379 2 4.676311637016058 27.898661305773473 4.663253303370182 0 0 0
382 2 7.79385328014153 27.898661305807188 4.6632533033291015 0 0 0
384 2 10.911394923241204 27.898661305758235 4.663253303297411 0 0 0
386 2 14.028936566429056 27.89866130587852 4.663253303371101 0 0 0
388 2 17.14647820948916 27.89866130585182 4.663253303252756 0 0 0
389 2 20.264019852626195 27.89866130582378 4.663253303334308 0 0 0
392 2 23.381561495720184 27.898661305868142 4.663253303322665 0 0 0
394 2 26.499103138939688 27.89866130584464 4.663253303227972 0 0 0
396 2 29.616644782236964 27.898661305862696 4.6632533033228025 0 0 0
398 2 32.73418642533846 27.89866130584756 4.663253303310654 0 0 0
399 2 35.851728068463466 27.898661305802406 4.663253303337845 0 0 0
180 1 38.969269711944776 4.4997841315647715 3.1043466666652755 0 0 0
402 3 3.1175408156138964 30.598531753354376 1.5454400297411985 0 0 0
403 3 6.2350824585155715 30.59853175337945 1.5454400300220357 0 0 0
404 3 9.352624101704524 30.598531753409482 1.5454400300063498 0 0 0
405 3 12.470165744822467 30.598531753313395 1.5454400300570243 0 0 0
406 3 15.587707387946104 30.59853175347204 1.545440030020222 0 0 0
407 3 18.70524903113111 30.598531753415735 1.5454400300259956 0 0 0
408 3 21.82279067425622 30.59853175339483 1.545440029991556 0 0 0
409 3 24.940332317389025 30.598531753289407 1.5454400299757343 0 0 0
410 3 28.057873960429163 30.598531753364867 1.5454400299948168 0 0 0
411 3 31.17541560357394 30.598531753445062 1.5454400300266864 0 0 0
412 3 34.292957246723454 30.598531753415045 1.545440030042601 0 0 0
413 3 37.41049889005545 30.59853175341714 1.545440030025561 0 0 0
414 3 1.5587699924880971 33.29840220136358 1.5454400309390215 0 0 0
415 3 4.676311636989723 33.29840220106466 1.5454400298910325 0 0 0
416 3 7.793853280086224 33.298402200898735 1.545440029987686 0 0 0
417 3 10.911394923234157 33.29840220096613 1.5454400299622806 0 0 0
418 3 14.02893656643221 33.29840220095444 1.5454400299861384 0 0 0
419 3 17.146478209574802 33.29840220101052 1.5454400299987852 0 0 0
420 3 20.264019852796586 33.2984022009839 1.545440029989193 0 0 0
421 3 23.381561495955683 33.29840220091047 1.5454400300301654 0 0 0
422 3 26.49910313903402 33.29840220095756 1.5454400299355786 0 0 0
423 3 29.616644782128397 33.29840220089941 1.5454400299521749 0 0 0
424 3 32.734186425217935 33.29840220098832 1.5454400299341178 0 0 0
425 3 35.85172806833712 33.298402200791124 1.5454400298900435 0 0 0
767 3 38.96926971143858 33.29840220097947 1.5454400300087423 0 0 0
426 3 3.1175408157015703 35.99827264846094 1.5454400297188775 0 0 0
427 3 6.235082458543637 35.99827264846278 1.545440030055554 0 0 0
428 3 9.352624101706743 35.998272648443184 1.5454400300267341 0 0 0
429 3 12.470165744890846 35.998272648435126 1.5454400300847648 0 0 0
430 3 15.587707388013875 35.99827264853574 1.5454400300387374 0 0 0
431 3 18.705249031135743 35.99827264854135 1.5454400301233735 0 0 0
432 3 21.822790674358895 35.99827264855667 1.5454400300744353 0 0 0
433 3 24.940332317446302 35.99827264847836 1.5454400299723485 0 0 0
434 3 28.057873960436645 35.998272648550184 1.5454400300802915 0 0 0
435 3 31.175415603603323 35.99827264855723 1.5454400301217344 0 0 0
436 3 34.2929572468517 35.99827264848692 1.5454400301064868 0 0 0
437 3 37.41049889003928 35.998272648529124 1.545440030182748 0 0 0
438 3 1.5587699925574432 38.69814309668869 1.5454400308811327 0 0 0
439 3 4.67631163687324 38.69814309600578 1.5454400299679558 0 0 0
440 3 7.79385328019232 38.69814309587377 1.5454400299496083 0 0 0
441 3 10.911394923272095 38.69814309601434 1.5454400300747784 0 0 0