LAMMPS data file via write_data, version 2 Aug 2023, timestep = 1836, units = metal

38096 atoms
3 atom types

0 1247.016558694512 xlo xhi
0 86.39583208117458 ylo yhi
0 50 zlo zhi
0 0 0 xy xz yz

Masses

1 95.94
2 32.065
3 32.065

Atoms # atomic

1 3 1.558769870643076 0.8999566163144885 1.545439907118737 0 0 0
2 3 4.67631126738086 0.8999566163150161 1.5454399071188465 0 0 0
3 3 7.793852664117946 0.8999566163146917 1.5454399071188312 0 0 0
4 3 10.9113940608544 0.8999566163145345 1.5454399071188858 0 0 0
5 3 14.028935457590714 0.8999566163144652 1.5454399071188336 0 0 0
6 3 17.14647685432696 0.8999566163144943 1.5454399071188833 0 0 0
7 3 20.264018251063256 0.8999566163144851 1.545439907118854 0 0 0
8 3 23.3815596477995 0.8999566163144296 1.5454399071188711 0 0 0
9 3 26.499101044535866 0.8999566163144427 1.545439907118844 0 0 0
10 3 29.616642441272134 0.8999566163144626 1.5454399071188458 0 0 0
11 3 32.73418383800845 0.8999566163144452 1.5454399071188807 0 0 0
12 3 3.117540569011373 3.5998263688513306 1.5454399071190392 0 0 0
13 3 6.235081965749385 3.599826368851285 1.5454399071189184 0 0 0
14 3 9.352623362486078 3.5998263688510597 1.545439907118905 0 0 0
15 3 12.470164759222552 3.5998263688510432 1.545439907118921 0 0 0
16 3 15.58770615595886 3.5998263688510295 1.545439907118887 0 0 0
17 3 18.705247552695198 3.599826368851021 1.5454399071188971 0 0 0
18 3 21.822788949431448 3.5998263688510073 1.5454399071188876 0 0 0
19 3 24.940330346167556 3.5998263688510157 1.5454399071189393 0 0 0
20 3 28.057871742903963 3.5998263688510237 1.545439907118879 0 0 0
21 3 31.17541313964018 3.5998263688510117 1.5454399071188925 0 0 0
22 3 34.292954536376584 3.599826368850987 1.5454399071188798 0 0 0
23 3 1.5587698706432285 6.29969612138781 1.5454399071187002 0 0 0
24 3 4.676311267380707 6.2996961213879565 1.5454399071188956 0 0 0
25 3 7.793852664117837 6.29969612138783 1.545439907118868 0 0 0
26 3 10.911394060854308 6.299696121387789 1.5454399071188845 0 0 0
27 3 14.028935457590759 6.299696121387782 1.5454399071188476 0 0 0
28 3 17.14647685432696 6.299696121387801 1.5454399071188916 0 0 0
29 3 20.264018251063256 6.299696121387758 1.5454399071188707 0 0 0
30 3 23.3815596477995 6.299696121387792 1.5454399071188594 0 0 0
31 3 26.499101044535866 6.299696121387765 1.5454399071188463 0 0 0
32 3 29.616642441272134 6.299696121387801 1.5454399071188512 0 0 0
33 3 32.73418383800845 6.299696121387774 1.5454399071188798 0 0 0
34 3 3.117540569011366 8.999565873924665 1.5454399071190221 0 0 0
35 3 6.235081965749319 8.999565873924585 1.5454399071189064 0 0 0
36 3 9.352623362486048 8.999565873924496 1.5454399071188871 0 0 0
37 3 12.470164759222552 8.999565873924537 1.5454399071189118 0 0 0
38 3 15.587706155958847 8.999565873924489 1.545439907118863 0 0 0
39 3 18.705247552695198 8.99956587392444 1.5454399071188805 0 0 0
40 3 21.822788949431448 8.999565873924473 1.5454399071188705 0 0 0
41 3 24.940330346167556 8.999565873924535 1.5454399071189222 0 0 0
42 3 28.057871742903963 8.999565873924489 1.5454399071188678 0 0 0
43 3 31.17541313964018 8.999565873924496 1.545439907118879 0 0 0
44 3 34.292954536376584 8.99956587392444 1.5454399071188687 0 0 0
45 3 1.5587698706432456 11.699435626461183 1.5454399071187008 0 0 0
46 3 4.676311267380695 11.699435626461266 1.545439907118894 0 0 0
47 3 7.7938526641178125 11.699435626461177 1.5454399071188702 0 0 0
48 3 10.911394060854331 11.69943562646117 1.545439907118887 0 0 0
49 3 14.028935457590714 11.699435626461188 1.54543990711885 0 0 0
50 3 17.14647685432696 11.69943562646117 1.5454399071188978 0 0 0
51 3 20.264018251063256 11.69943562646117 1.5454399071188785 0 0 0
52 3 23.3815596477995 11.699435626461163 1.5454399071188765 0 0 0
53 3 26.499101044535866 11.699435626461188 1.5454399071188534 0 0 0
54 3 29.616642441272095 11.699435626461177 1.5454399071188878 0 0 0
55 3 32.73418383800845 11.699435626461163 1.5454399071188412 0 0 0
56 3 3.1175405690113607 14.399305378998031 1.5454399071190308 0 0 0
57 3 6.235081965749322 14.399305378997955 1.545439907118913 0 0 0
58 3 9.352623362486048 14.399305378997907 1.54543990711889 0 0 0
59 3 12.470164759222552 14.399305378997939 1.5454399071188962 0 0 0
60 3 15.58770615595886 14.399305378997907 1.5454399071188558 0 0 0
61 3 18.705247552695198 14.39930537899787 1.5454399071188814 0 0 0
62 3 21.822788949431448 14.399305378997907 1.5454399071188683 0 0 0
63 3 24.940330346167556 14.399305378997928 1.5454399071189042 0 0 0
64 3 28.057871742903963 14.399305378997907 1.5454399071188643 0 0 0
65 3 31.17541313964018 14.3993053789979 1.545439907118875 0 0 0
66 3 34.292954536376584 14.39930537899787 1.5454399071188683 0 0 0
67 3 1.5587698706431785 17.099175131534597 1.5454399071187055 0 0 0
68 3 4.676311267380722 17.09917513153471 1.5454399071188838 0 0 0
69 3 7.793852664117876 17.099175131534604 1.5454399071188436 0 0 0
70 3 10.911394060854333 17.09917513153461 1.5454399071188805 0 0 0
71 3 14.028935457590753 17.09917513153461 1.5454399071188456 0 0 0
72 3 17.14647685432696 17.099175131534626 1.5454399071188845 0 0 0
73 3 20.264018251063256 17.09917513153461 1.5454399071188591 0 0 0
74 3 23.3815596477995 17.09917513153461 1.545439907118865 0 0 0
75 3 26.499101044535866 17.099175131534558 1.5454399071188563 0 0 0
76 3 29.616642441272095 17.099175131534654 1.5454399071188318 0 0 0
77 3 32.73418383800845 17.099175131534604 1.5454399071188627 0 0 0
78 3 3.117540569011447 19.79904488407129 1.5454399071190468 0 0 0
79 3 6.235081965749524 19.799044884071204 1.5454399071189058 0 0 0
80 3 9.352623362486113 19.799044884071296 1.5454399071188851 0 0 0
81 3 12.470164759222552 19.799044884071357 1.545439907118904 0 0 0
82 3 15.58770615595886 19.799044884071357 1.5454399071188714 0 0 0
83 3 18.705247552695198 19.799044884071357 1.545439907118884 0 0 0
84 3 21.822788949431448 19.799044884071364 1.5454399071188782 0 0 0
85 3 24.940330346167556 19.799044884071357 1.5454399071189115 0 0 0
86 3 28.057871742903963 19.799044884071428 1.5454399071188953 0 0 0
87 3 31.175413139640142 19.799044884071364 1.5454399071188663 0 0 0
88 3 34.292954536376584 19.799044884071346 1.545439907118868 0 0 0
89 3 1.5587698706454185 22.498914636607193 1.545439907118242 0 0 0
90 3 4.676311267381467 22.498914636607605 1.5454399071189353 0 0 0
91 3 7.793852664118179 22.49891463660773 1.5454399071188512 0 0 0
92 3 10.911394060854477 22.49891463660798 1.5454399071188798 0 0 0
93 3 14.028935457590764 22.498914636607996 1.5454399071188512 0 0 0
94 3 17.14647685432696 22.498914636608077 1.5454399071188962 0 0 0
95 3 20.264018251063256 22.498914636607996 1.5454399071188571 0 0 0
96 3 23.3815596477995 22.498914636608028 1.5454399071188896 0 0 0
97 3 26.499101044535866 22.498914636608077 1.5454399071188778 0 0 0
98 3 29.616642441271996 22.498914636608077 1.5454399071188591 0 0 0
99 3 32.73418383800845 22.49891463660798 1.545439907118882 0 0 0
100 3 3.1175405690153726 25.19878438914429 1.5454399071188079 0 0 0
101 3 6.235081965750963 25.19878438914428 1.5454399071188316 0 0 0
102 3 9.352623362486684 25.198784389144567 1.5454399071188702 0 0 0
103 3 12.47016475922258 25.1987843891447 1.5454399071188936 0 0 0
104 3 15.58770615595886 25.198784389144723 1.545439907118863 0 0 0
105 3 18.705247552695198 25.198784389144766 1.545439907118883 0 0 0
106 3 21.822788949431448 25.198784389144766 1.5454399071188782 0 0 0
107 3 24.940330346167556 25.198784389144713 1.5454399071189384 0 0 0
108 3 28.057871742903963 25.198784389144794 1.545439907118848 0 0 0
109 3 31.175413139640206 25.19878438914482 1.5454399071188527 0 0 0
110 3 34.292954536376584 25.198784389144794 1.5454399071188645 0 0 0
111 3 1.5587698706486415 27.89865414168126 1.5454399071183622 0 0 0
112 3 4.676311267383529 27.898654141681053 1.545439907118955 0 0 0
113 3 7.793852664119074 27.89865414168124 1.545439907118798 0 0 0
114 3 10.911394060854676 27.898654141681476 1.5454399071188472 0 0 0
115 3 14.028935457590764 27.898654141681494 1.5454399071188787 0 0 0
116 3 17.14647685432696 27.898654141681494 1.5454399071188687 0 0 0
117 3 20.264018251063256 27.89865414168153 1.545439907118851 0 0 0
118 3 23.3815596477995 27.898654141681494 1.5454399071188767 0 0 0
119 3 26.499101044535866 27.89865414168159 1.545439907118825 0 0 0
120 3 29.61664244127219 27.898654141681494 1.5454399071188845 0 0 0
121 3 32.73418383800845 27.898654141681494 1.545439907118879 0 0 0
122 3 3.117540569016146 30.598523894218065 1.5454399071188138 0 0 0
123 3 6.2350819657514345 30.59852389421808 1.545439907118769 0 0 0
124 3 9.352623362486831 30.598523894218093 1.5454399071188132 0 0 0
125 3 12.470164759222651 30.59852389421821 1.5454399071188423 0 0 0
126 3 15.58770615595886 30.598523894218243 1.5454399071188527 0 0 0
127 3 18.705247552695198 30.598523894218232 1.5454399071188518 0 0 0
128 3 21.822788949431448 30.598523894218197 1.5454399071188496 0 0 0
129 3 24.940330346167556 30.598523894218232 1.5454399071188896 0 0 0
130 3 28.057871742903963 30.59852389421823 1.5454399071188443 0 0 0
131 3 31.175413139640206 30.59852389421828 1.5454399071188476 0 0 0
132 3 34.292954536376584 30.59852389421823 1.5454399071188436 0 0 0
133 3 1.5587698706486521 33.298393646754754 1.545439907118335 0 0 0
134 3 4.676311267383641 33.29839364675502 1.545439907118951 0 0 0
135 3 7.79385266411913 33.298393646754974 1.545439907118837 0 0 0
136 3 10.91139406085466 33.298393646754946 1.5454399071188907 0 0 0
137 3 14.028935457590764 33.29839364675496 1.5454399071188678 0 0 0
138 3 17.14647685432696 33.29839364675481 1.5454399071189047 0 0 0
139 3 20.264018251063256 33.29839364675496 1.5454399071188991 0 0 0
140 3 23.3815596477995 33.298393646754946 1.5454399071189222 0 0 0
141 3 26.499101044535866 33.29839364675496 1.54543990711888 0 0 0
142 3 29.616642441272095 33.29839364675496 1.5454399071188736 0 0 0
143 3 32.73418383800845 33.29839364675492 1.5454399071188962 0 0 0
144 3 3.117540569016116 35.99826339929165 1.5454399071187757 0 0 0
145 3 6.235081965751415 35.998263399291915 1.5454399071187956 0 0 0
146 3 9.352623362486788 35.99826339929186 1.545439907118809 0 0 0
147 3 12.470164759222651 35.99826339929175 1.5454399071188702 0 0 0
148 3 15.58770615595886 35.998263399291694 1.5454399071188785 0 0 0
149 3 18.705247552695198 35.99826339929172 1.5454399071188567 0 0 0
150 3 21.822788949431448 35.99826339929179 1.5454399071188456 0 0 0
151 3 24.940330346167556 35.99826339929171 1.5454399071189298 0 0 0
152 3 28.057871742903963 35.99826339929186 1.5454399071188551 0 0 0
153 3 31.175413139640142 35.99826339929172 1.5454399071188911 0 0 0
154 3 34.292954536376584 35.99826339929171 1.545439907118833 0 0 0
155 3 1.5587698706458601 38.69813315182926 1.545439907119329 0 0 0
156 3 4.676311267383031 38.69813315182898 1.545439907118901 0 0 0
157 3 7.7938526641188055 38.69813315182875 1.5454399071188114 0 0 0
158 3 10.911394060854585 38.698133151828436 1.5454399071188345 0 0 0
159 3 14.028935457590764 38.69813315182841 1.5454399071188527 0 0 0
160 3 17.14647685432696 38.69813315182841 1.5454399071188927 0 0 0
161 3 20.264018251063256 38.698133151828394 1.54543990711885 0 0 0
162 3 23.3815596477995 38.69813315182854 1.5454399071188631 0 0 0
163 3 26.499101044535866 38.69813315182841 1.545439907118827 0 0 0
164 3 29.616642441272134 38.69813315182856 1.545439907118841 0 0 0
165 3 32.73418383800845 38.69813315182841 1.5454399071188702 0 0 0
166 3 3.117540569012173 41.398002904365676 1.5454399071190454 0 0 0
167 3 6.235081965749914 41.398002904365796 1.5454399071188878 0 0 0
168 3 9.35262336248628 41.39800290436541 1.5454399071188436 0 0 0
169 3 12.470164759222552 41.39800290436525 1.5454399071188691 0 0 0
170 3 15.58770615595892 41.39800290436518 1.5454399071188663 0 0 0
171 3 18.705247552695198 41.39800290436525 1.5454399071189135 0 0 0
172 3 21.822788949431448 41.39800290436529 1.5454399071188902 0 0 0
173 3 24.940330346167556 41.39800290436525 1.545439907118933 0 0 0
174 3 28.057871742903963 41.39800290436525 1.54543990711888 0 0 0
175 3 31.17541313964018 41.39800290436525 1.5454399071188913 0 0 0
176 3 34.292954536376584 41.39800290436525 1.5454399071188805 0 0 0
177 2 1.5587698706430713 0.8999566163144846 4.663253426214607 0 0 0
178 2 4.67631126738081 0.8999566163150018 4.663253426214437 0 0 0
179 1 3.1175405690116804 1.7999131868590021 3.1043466666666664 0 0 0
180 2 7.79385266411798 0.8999566163146737 4.663253426214502 0 0 0
181 1 6.235081965749531 1.7999131868594178 3.1043466666666784 0 0 0
182 1 9.352623362486211 1.799913186859282 3.104346666666682 0 0 0
183 2 10.911394060854386 0.8999566163145136 4.663253426214499 0 0 0
184 1 12.470164759222621 1.7999131868592315 3.1043466666666846 0 0 0
185 2 14.028935457590714 0.8999566163144794 4.6632534262145136 0 0 0
186 1 15.587706155958847 1.7999131868592462 3.10434666666669 0 0 0
187 2 17.14647685432696 0.8999566163145176 4.663253426214452 0 0 0
188 2 20.264018251063256 0.8999566163145211 4.663253426214523 0 0 0
189 1 18.705247552695187 1.7999131868592395 3.104346666666686 0 0 0
190 2 23.3815596477995 0.8999566163144523 4.663253426214489 0 0 0
191 1 21.822788949431438 1.7999131868592275 3.1043466666666797 0 0 0
192 2 26.499101044535866 0.8999566163144438 4.663253426214509 0 0 0
193 1 24.940330346167755 1.7999131868591685 3.104346666666679 0 0 0
194 1 28.057871742904062 1.7999131868592178 3.1043466666666775 0 0 0
195 2 29.616642441272134 0.8999566163144596 4.663253426214509 0 0 0
196 1 31.17541313964028 1.7999131868592033 3.1043466666666766 0 0 0
197 2 32.73418383800845 0.8999566163144452 4.6632534262144745 0 0 0
198 1 34.29295453637653 1.7999131868592049 3.1043466666666752 0 0 0
199 1 1.5587698706420992 4.499782939395681 3.10434666666667 0 0 0
200 1 4.676311267380524 4.499782939395783 3.104346666666671 0 0 0
201 2 3.117540569011373 3.5998263688513354 4.663253426214295 0 0 0
202 1 7.793852664117785 4.49978293939598 3.1043466666666744 0 0 0
203 2 6.235081965749384 3.5998263688512884 4.663253426214436 0 0 0
204 2 9.352623362486087 3.5998263688510708 4.663253426214461 0 0 0
205 1 10.91139406085435 4.499782939395891 3.1043466666666775 0 0 0
206 2 12.470164759222552 3.599826368851067 4.663253426214446 0 0 0
207 1 14.028935457590714 4.499782939395927 3.104346666666678 0 0 0
208 2 15.58770615595886 3.5998263688510312 4.663253426214487 0 0 0
209 1 17.14647685432696 4.499782939395886 3.104346666666678 0 0 0
210 1 20.264018251063273 4.499782939395891 3.1043466666666775 0 0 0
211 2 18.705247552695198 3.599826368851033 4.663253426214465 0 0 0
212 1 23.3815596477995 4.499782939395936 3.1043466666666766 0 0 0
213 2 21.822788949431448 3.599826368851021 4.663253426214474 0 0 0
214 1 26.499101044535866 4.499782939395908 3.1043466666666757 0 0 0
215 2 24.940330346167556 3.5998263688510277 4.663253426214415 0 0 0
216 2 28.057871742903963 3.5998263688510237 4.6632534262144745 0 0 0
217 1 29.616642441272095 4.4997829393959385 3.1043466666666757 0 0 0
218 2 31.17541313964018 3.5998263688510193 4.663253426214464 0 0 0
219 1 32.73418383800845 4.499782939395879 3.1043466666666744 0 0 0
220 2 34.292954536376584 3.599826368850987 4.663253426214474 0 0 0
221 2 1.5587698706432285 6.29969612138779 4.663253426214642 0 0 0
222 2 4.676311267380707 6.2996961213879565 4.663253426214452 0 0 0
223 1 3.1175405690117284 7.199652691932277 3.1043466666666695 0 0 0
224 2 7.793852664117826 6.299696121387852 4.663253426214479 0 0 0
225 1 6.235081965749354 7.199652691932611 3.1043466666666704 0 0 0
226 1 9.352623362486103 7.19965269193264 3.1043466666666726 0 0 0
227 2 10.911394060854308 6.299696121387837 4.66325342621447 0 0 0
228 1 12.470164759222602 7.199652691932615 3.1043466666666752 0 0 0
229 2 14.028935457590759 6.299696121387774 4.663253426214509 0 0 0
230 1 15.58770615595886 7.199652691932676 3.1043466666666752 0 0 0
231 2 17.14647685432696 6.299696121387813 4.663253426214466 0 0 0
232 2 20.264018251063256 6.299696121387774 4.663253426214487 0 0 0
233 1 18.705247552695187 7.199652691932628 3.104346666666675 0 0 0
234 2 23.3815596477995 6.299696121387792 4.663253426214493 0 0 0
235 1 21.822788949431477 7.199652691932652 3.1043466666666752 0 0 0
236 2 26.499101044535866 6.299696121387768 4.6632534262145 0 0 0
237 1 24.940330346167755 7.199652691932599 3.104346666666675 0 0 0
238 1 28.05787174290406 7.1996526919326325 3.1043466666666744 0 0 0
239 2 29.616642441272134 6.299696121387813 4.6632534262145 0 0 0
240 1 31.17541313964028 7.199652691932656 3.1043466666666735 0 0 0
241 2 32.73418383800845 6.299696121387792 4.663253426214471 0 0 0
242 1 34.29295453637653 7.199652691932622 3.1043466666666726 0 0 0
243 1 1.5587698706421054 9.89952244446908 3.104346666666667 0 0 0
244 1 4.676311267380499 9.899522444469122 3.1043466666666686 0 0 0
245 2 3.117540569011371 8.99956587392465 4.663253426214311 0 0 0
246 1 7.793852664117723 9.899522444469367 3.1043466666666717 0 0 0
247 2 6.235081965749313 8.999565873924585 4.663253426214436 0 0 0
248 2 9.352623362486039 8.999565873924517 4.663253426214463 0 0 0
249 1 10.911394060854331 9.899522444469323 3.1043466666666726 0 0 0
250 2 12.470164759222552 8.999565873924503 4.66325342621444 0 0 0
251 1 14.028935457590714 9.899522444469376 3.1043466666666744 0 0 0
252 2 15.587706155958847 8.999565873924489 4.663253426214491 0 0 0
253 1 17.14647685432696 9.899522444469312 3.1043466666666744 0 0 0
254 1 20.264018251063273 9.899522444469339 3.1043466666666744 0 0 0
255 2 18.705247552695198 8.99956587392444 4.663253426214474 0 0 0
256 1 23.3815596477995 9.899522444469394 3.1043466666666744 0 0 0
257 2 21.822788949431448 8.999565873924473 4.663253426214484 0 0 0
258 1 26.499101044535866 9.89952244446937 3.1043466666666735 0 0 0
259 2 24.940330346167556 8.999565873924503 4.663253426214433 0 0 0
260 2 28.057871742903963 8.999565873924489 4.663253426214483 0 0 0
261 1 29.616642441272095 9.899522444469328 3.1043466666666735 0 0 0
262 2 31.17541313964018 8.9995658739245 4.663253426214474 0 0 0
263 1 32.73418383800845 9.899522444469353 3.1043466666666726 0 0 0
264 2 34.292954536376584 8.99956587392447 4.663253426214477 0 0 0
265 2 1.5587698706432445 11.699435626461169 4.663253426214631 0 0 0
266 2 4.676311267380682 11.699435626461266 4.663253426214445 0 0 0
267 1 3.117540569011741 12.599392197005654 3.1043466666666677 0 0 0
268 2 7.7938526641178125 11.699435626461177 4.663253426214475 0 0 0
269 1 6.235081965749354 12.599392197005978 3.104346666666668 0 0 0
270 1 9.352623362486103 12.599392197006054 3.1043466666666872 0 0 0
271 2 10.9113940608544 11.69943562646117 4.663253426214474 0 0 0
272 1 12.470164759222602 12.599392197006038 3.1043466666666775 0 0 0
273 2 14.028935457590759 11.699435626461202 4.663253426214503 0 0 0
274 1 15.587706155958859 12.599392197006086 3.1043466666666735 0 0 0
275 2 17.14647685432696 11.699435626461177 4.663253426214454 0 0 0
276 2 20.264018251063256 11.69943562646117 4.663253426214474 0 0 0
277 1 18.705247552695187 12.599392197006038 3.1043466666666735 0 0 0
278 2 23.3815596477995 11.699435626461188 4.663253426214474 0 0 0
279 1 21.822788949431477 12.599392197006045 3.1043466666666744 0 0 0
280 2 26.499101044535866 11.699435626461188 4.663253426214494 0 0 0
281 1 24.940330346167755 12.599392197006038 3.1043466666666744 0 0 0
282 1 28.057871742904002 12.599392197006066 3.1043466666666744 0 0 0
283 2 29.616642441272095 11.699435626461177 4.663253426214466 0 0 0
284 1 31.17541313964038 12.599392197006075 3.104346666666673 0 0 0
285 2 32.73418383800845 11.699435626461163 4.66325342621451 0 0 0
286 1 34.292954536376506 12.599392197006038 3.1043466666666713 0 0 0
287 1 1.558769870642093 15.299261949542522 3.1043466666666695 0 0 0
288 1 4.676311267380495 15.29926194954241 3.1043466666666686 0 0 0
289 2 3.1175405690113607 14.399305378998031 4.663253426214296 0 0 0
290 1 7.793852664117744 15.299261949542716 3.1043466666666704 0 0 0
291 2 6.235081965749344 14.399305378997955 4.663253426214431 0 0 0
292 2 9.352623362486048 14.3993053789979 4.663253426214457 0 0 0
293 1 10.911394060854331 15.299261949542716 3.1043466666666726 0 0 0
294 2 12.470164759222552 14.399305378997948 4.663253426214466 0 0 0
295 1 14.028935457590714 15.299261949542755 3.1043466666666735 0 0 0
296 2 15.58770615595886 14.399305378997907 4.663253426214499 0 0 0
297 1 17.14647685432696 15.29926194954272 3.104346666666676 0 0 0
298 1 20.264018251063256 15.299261949542746 3.1043466666666744 0 0 0
299 2 18.705247552695198 14.39930537899787 4.663253426214473 0 0 0
300 1 23.3815596477995 15.299261949542768 3.1043466666666744 0 0 0
301 2 21.822788949431448 14.399305378997907 4.663253426214482 0 0 0
302 1 26.499101044535866 15.299261949542716 3.1043466666666735 0 0 0
303 2 24.940330346167556 14.399305378997928 4.663253426214442 0 0 0
304 2 28.057871742903963 14.399305378997907 4.6632534262144905 0 0 0
305 1 29.616642441272095 15.299261949542794 3.1043466666666735 0 0 0
306 2 31.17541313964018 14.3993053789979 4.663253426214479 0 0 0
307 1 32.73418383800845 15.2992619495427 3.104346666666672 0 0 0
308 2 34.292954536376584 14.39930537899787 4.663253426214478 0 0 0
309 2 1.558769870643175 17.099175131534597 4.66325342621464 0 0 0
310 2 4.676311267380712 17.09917513153468 4.663253426214461 0 0 0
311 1 3.117540569011758 17.999131702078955 3.104346666666669 0 0 0
312 2 7.793852664117869 17.099175131534604 4.663253426214491 0 0 0
313 1 6.235081965749404 17.99913170207925 3.10434666666667 0 0 0
314 1 9.352623362486112 17.999131702079367 3.1043466666666744 0 0 0
315 2 10.911394060854331 17.09917513153461 4.6632534262144665 0 0 0
316 1 12.470164759222602 17.999131702079413 3.1043466666666775 0 0 0
317 2 14.028935457590759 17.099175131534626 4.663253426214497 0 0 0
318 1 15.587706155958847 17.999131702079435 3.104346666666673 0 0 0
319 2 17.14647685432696 17.09917513153461 4.663253426214463 0 0 0
320 2 20.264018251063256 17.09917513153461 4.663253426214488 0 0 0
321 1 18.705247552695187 17.99913170207942 3.104346666666672 0 0 0
322 2 23.3815596477995 17.099175131534604 4.663253426214481 0 0 0
323 1 21.822788949431477 17.999131702079435 3.1043466666666717 0 0 0
324 2 26.499101044535866 17.099175131534558 4.663253426214491 0 0 0
325 1 24.940330346167755 17.999131702079463 3.104346666666672 0 0 0
326 1 28.05787174290408 17.999131702079474 3.104346666666673 0 0 0
327 2 29.616642441272095 17.099175131534693 4.663253426214512 0 0 0
328 1 31.17541313964028 17.999131702079435 3.1043466666666726 0 0 0
329 2 32.73418383800845 17.09917513153461 4.663253426214484 0 0 0
330 1 34.292954536376506 17.999131702079435 3.1043466666666704 0 0 0
331 1 1.5587698706424062 20.69900145461569 3.10434666666667 0 0 0
332 1 4.676311267380674 20.699001454615583 3.10434666666667 0 0 0
333 2 3.1175405690114393 19.799044884071282 4.6632534262142835 0 0 0
334 1 7.793852664117852 20.69900145461596 3.104346666666671 0 0 0
335 2 6.235081965749513 19.7990448840712 4.663253426214443 0 0 0
336 2 9.352623362486122 19.799044884071268 4.663253426214467 0 0 0
337 1 10.911394060854358 20.69900145461613 3.1043466666666717 0 0 0
338 2 12.470164759222552 19.799044884071364 4.663253426214453 0 0 0
339 1 14.028935457590714 20.699001454616166 3.104346666666672 0 0 0
340 2 15.58770615595886 19.799044884071357 4.663253426214479 0 0 0
341 1 17.14647685432696 20.69900145461616 3.1043466666666717 0 0 0
342 1 20.264018251063256 20.699001454616166 3.1043466666666713 0 0 0
343 2 18.705247552695198 19.799044884071357 4.663253426214459 0 0 0
344 1 23.3815596477995 20.69900145461622 3.1043466666666713 0 0 0
345 2 21.822788949431448 19.799044884071364 4.663253426214468 0 0 0
346 1 26.499101044535767 20.699001454616177 3.104346666666672 0 0 0
347 2 24.940330346167556 19.799044884071357 4.663253426214437 0 0 0
348 2 28.057871742903963 19.799044884071428 4.663253426214446 0 0 0
349 1 29.616642441272095 20.699001454616248 3.1043466666666717 0 0 0
350 2 31.17541313964018 19.799044884071364 4.663253426214475 0 0 0
351 1 32.73418383800845 20.699001454616177 3.1043466666666664 0 0 0
352 2 34.292954536376584 19.79904488407134 4.6632534262144745 0 0 0
353 2 1.558769870645424 22.498914636607193 4.663253426215109 0 0 0
354 2 4.676311267381467 22.498914636607605 4.6632534262144105 0 0 0
355 1 3.1175405690133067 23.39887120715216 3.104346666666671 0 0 0
356 2 7.793852664118179 22.49891463660773 4.663253426214493 0 0 0
357 1 6.235081965750013 23.39887120715241 3.1043466666666704 0 0 0
358 1 9.352623362486316 23.398871207152734 3.104346666666671 0 0 0
359 2 10.911394060854471 22.49891463660798 4.663253426214466 0 0 0
360 1 12.470164759222602 23.39887120715283 3.1043466666666713 0 0 0
361 2 14.028935457590764 22.498914636607996 4.663253426214495 0 0 0
362 1 15.587706155958847 23.398871207152926 3.104346666666671 0 0 0
363 2 17.14647685432696 22.49891463660812 4.663253426214454 0 0 0
364 2 20.264018251063256 22.498914636607996 4.6632534262144905 0 0 0
365 1 18.70524755269516 23.398871207152926 3.1043466666666704 0 0 0
366 2 23.3815596477995 22.498914636608028 4.6632534262144665 0 0 0
367 1 21.822788949431384 23.398871207152865 3.1043466666666713 0 0 0
368 2 26.499101044535866 22.498914636608077 4.663253426214476 0 0 0
369 1 24.940330346167755 23.398871207152844 3.1043466666666855 0 0 0
370 1 28.057871742904062 23.398871207152926 3.1043466666666717 0 0 0
371 2 29.616642441271996 22.498914636608077 4.663253426214496 0 0 0
372 1 31.17541313964028 23.398871207152865 3.1043466666666744 0 0 0
373 2 32.73418383800845 22.49891463660812 4.6632534262144665 0 0 0
374 1 34.29295453637653 23.39887120715288 3.1043466666666717 0 0 0
375 1 1.558769870648728 26.098740959690506 3.1043466666666775 0 0 0
376 1 4.676311267383303 26.098740959689106 3.104346666666678 0 0 0
377 2 3.1175405690153823 25.19878438914429 4.663253426214532 0 0 0
378 1 7.793852664118796 26.09874095968945 3.104346666666671 0 0 0
379 2 6.235081965750963 25.19878438914428 4.6632534262145136 0 0 0
380 2 9.352623362486684 25.198784389144567 4.663253426214476 0 0 0
381 1 10.911394060854526 26.098740959689643 3.1043466666666713 0 0 0
382 2 12.47016475922258 25.1987843891447 4.66325342621446 0 0 0
383 1 14.028935457590714 26.098740959689586 3.1043466666666713 0 0 0
384 2 15.58770615595886 25.198784389144723 4.66325342621448 0 0 0
385 1 17.14647685432697 26.098740959689643 3.104346666666669 0 0 0
386 1 20.264018251063256 26.098740959689614 3.104346666666671 0 0 0
387 2 18.705247552695198 25.198784389144766 4.663253426214465 0 0 0
388 1 23.3815596477995 26.098740959689696 3.10434666666667 0 0 0
389 2 21.822788949431448 25.198784389144766 4.66325342621447 0 0 0
390 1 26.499101044535866 26.098740959689643 3.104346666666667 0 0 0
391 2 24.940330346167556 25.198784389144723 4.663253426214416 0 0 0
392 2 28.057871742903963 25.198784389144794 4.663253426214495 0 0 0
393 1 29.616642441272095 26.098740959689692 3.104346666666671 0 0 0
394 2 31.175413139640206 25.19878438914482 4.66325342621449 0 0 0
395 1 32.73418383800845 26.098740959689582 3.1043466666666704 0 0 0
396 2 34.292954536376584 25.198784389144723 4.66325342621448 0 0 0
397 2 1.5587698706486435 27.89865414168126 4.6632534262150145 0 0 0
398 2 4.676311267383529 27.898654141681146 4.6632534262144105 0 0 0
399 1 3.117540569015813 28.79861071222624 3.1043466666666886 0 0 0
400 2 7.793852664119074 27.89865414168124 4.663253426214544 0 0 0
401 1 6.2350819657513545 28.798610712226335 3.104346666666672 0 0 0
402 1 9.352623362486836 28.798610712226417 3.1043466666666713 0 0 0
403 2 10.911394060854676 27.89865414168148 4.663253426214499 0 0 0
404 1 12.470164759222621 28.798610712226374 3.1043466666666717 0 0 0
405 2 14.028935457590764 27.898654141681494 4.66325342621447 0 0 0
406 1 15.587706155958859 28.798610712226417 3.1043466666666717 0 0 0
407 2 17.14647685432696 27.898654141681494 4.663253426214479 0 0 0
408 2 20.264018251063256 27.89865414168153 4.663253426214496 0 0 0
409 1 18.70524755269515 28.798610712226374 3.1043466666666717 0 0 0
410 2 23.3815596477995 27.898654141681494 4.6632534262144665 0 0 0
411 1 21.82278894943141 28.798610712226374 3.1043466666666717 0 0 0
412 2 26.499101044535866 27.89865414168159 4.663253426214508 0 0 0
413 1 24.940330346167755 28.798610712226374 3.1043466666666704 0 0 0
414 1 28.057871742904062 28.798610712226417 3.1043466666666713 0 0 0
415 2 29.61664244127219 27.898654141681494 4.663253426214468 0 0 0
416 1 31.17541313964028 28.798610712226417 3.1043466666666704 0 0 0
417 2 32.73418383800845 27.898654141681494 4.663253426214474 0 0 0
418 1 34.292954536376506 28.798610712226374 3.104346666666671 0 0 0
419 1 1.558769870648828 31.498480464763464 3.1043466666666832 0 0 0
420 1 4.676311267383765 31.49848046476315 3.1043466666666717 0 0 0
421 2 3.1175405690161586 30.598523894218037 4.663253426214557 0 0 0
422 1 7.793852664119105 31.49848046476319 3.10434666666667 0 0 0
423 2 6.23508196575144 30.59852389421808 4.6632534262145775 0 0 0
424 2 9.352623362486826 30.598523894218093 4.6632534262145295 0 0 0
425 1 10.911394060854718 31.498480464763116 3.1043466666666717 0 0 0
426 2 12.470164759222651 30.59852389421821 4.663253426214503 0 0 0
427 1 14.028935457590764 31.498480464763094 3.1043466666666717 0 0 0
428 2 15.58770615595886 30.598523894218243 4.663253426214494 0 0 0
429 1 17.14647685432697 31.498480464763094 3.1043466666666704 0 0 0
430 1 20.264018251063273 31.498480464763183 3.1043466666666726 0 0 0
431 2 18.705247552695198 30.598523894218232 4.663253426214495 0 0 0
432 1 23.3815596477995 31.498480464763166 3.1043466666666726 0 0 0
433 2 21.822788949431448 30.598523894218136 4.663253426214492 0 0 0
434 1 26.499101044535873 31.498480464763094 3.1043466666666726 0 0 0
435 2 24.940330346167556 30.598523894218232 4.6632534262144585 0 0 0
436 2 28.057871742903963 30.598523894218232 4.663253426214502 0 0 0
437 1 29.616642441272095 31.49848046476311 3.1043466666666717 0 0 0
438 2 31.175413139640206 30.59852389421827 4.663253426214496 0 0 0
439 1 32.73418383800845 31.49848046476311 3.1043466666666713 0 0 0
440 2 34.292954536376584 30.59852389421823 4.663253426214499 0 0 0
441 2 1.5587698706486497 33.298393646754754 4.663253426215023 0 0 0
442 2 4.676311267383656 33.29839364675504 4.66325342621438 0 0 0