LAMMPS data file via write_data, version 2 Aug 2023, timestep = 1672, units = metal

47840 atoms
3 atom types

0 1558.770737316756 xlo xhi
0 86.39585154784207 ylo yhi
0 50 zlo zhi
0 0 0 xy xz yz

Masses

1 95.94
2 32.065
3 32.065

Atoms # atomic

1 3 1.5586963674116048 0.899930062012437 1.5456887524169942 0 0 0
2 3 4.676145001237623 0.89995984041808 1.5457231504869224 0 0 0
3 3 7.793713415542067 0.8999582488855783 1.54559832849066 0 0 0
4 3 10.911275910248955 0.8999586343118775 1.5455134855741697 0 0 0
5 3 14.028834089732351 0.8999588893506856 1.5454530378546396 0 0 0
6 3 17.14639160531865 0.8999585703819968 1.5454140604770144 0 0 0
7 3 20.263947357574867 0.8999585525721029 1.5453942263255123 0 0 0
8 3 23.381501624096337 0.8999582096654754 1.5453897729236137 0 0 0
9 3 26.499053129822435 0.8999581640104063 1.5453992946390747 0 0 0
10 3 29.616601898059493 0.8999578212864641 1.545416315511943 0 0 0
11 3 32.734148637541765 0.899957731191536 1.5454348603338497 0 0 0
12 3 35.85169241382495 0.8999575994627016 1.5454502884984136 0 0 0
13 3 38.969232714837965 0.8999573020422227 1.5454546189403782 0 0 0
14 3 42.08677588148566 0.8999579275462798 1.545450377996991 0 0 0
15 3 3.1173955904940747 3.5998005891171316 1.5457913483062682 0 0 0
16 3 6.234943177583404 3.599827654850726 1.5456477335463392 0 0 0
17 3 9.352497218881913 3.599829639088226 1.5455527043552766 0 0 0
18 3 12.47005539470823 3.5998290216242133 1.5454803874971408 0 0 0
19 3 15.587613229321354 3.5998286463981377 1.545430769873168 0 0 0
20 3 18.705169680589755 3.5998289918993 1.5454021268770217 0 0 0
21 3 21.822724347229116 3.599828452969475 1.5453899349904543 0 0 0
22 3 24.94027764079909 3.599828901281261 1.5453932635771397 0 0 0
23 3 28.057828466248125 3.5998281724727015 1.5454072822755598 0 0 0
24 3 31.17537554609428 3.599828237250703 1.5454256374770583 0 0 0
25 3 34.29292111451274 3.59982799825364 1.5454434570379068 0 0 0
26 3 37.41046201921459 3.5998278010779385 1.5454540159860748 0 0 0
27 3 40.52800404262731 3.599827959334156 1.5454531976235946 0 0 0
28 3 1.5586963674110916 6.299670783752482 1.5456887524173224 0 0 0
29 3 4.676145001237588 6.2997005621576125 1.5457231504866116 0 0 0
30 3 7.793713415541619 6.2996989706253546 1.54559832849074 0 0 0
31 3 10.91127591024894 6.299699356052053 1.5455134855743091 0 0 0
32 3 14.028834089732483 6.299699611090858 1.5454530378545128 0 0 0
33 3 17.14639160531879 6.299699292122098 1.5454140604769786 0 0 0
34 3 20.263947357574864 6.299699274312099 1.5453942263256566 0 0 0
35 3 23.381501624096316 6.299698931405606 1.5453897729236847 0 0 0
36 3 26.49905312982247 6.299698885750507 1.5453992946391133 0 0 0
37 3 29.61660189805938 6.299698543026663 1.5454163155118865 0 0 0
38 3 32.734148637541864 6.299698452931538 1.5454348603339352 0 0 0
39 3 35.85169241382504 6.299698321202828 1.5454502884984032 0 0 0
40 3 38.969232714837986 6.299698023782521 1.5454546189403835 0 0 0
41 3 42.08677588148573 6.2996986492863645 1.5454503779969644 0 0 0
42 3 3.1173955904949575 8.999541310857095 1.5457913483058612 0 0 0
43 3 6.234943177583965 8.999568376590537 1.545647733546323 0 0 0
44 3 9.352497218882247 8.999570360828473 1.5455527043554769 0 0 0
45 3 12.470055394708169 8.999569743364601 1.5454803874971292 0 0 0
46 3 15.587613229321372 8.999569368138294 1.545430769873041 0 0 0
47 3 18.705169680589798 8.999569713639367 1.5454021268769857 0 0 0
48 3 21.82272434722916 8.999569174709654 1.5453899349904943 0 0 0
49 3 24.940277640799 8.999569623021433 1.5453932635770706 0 0 0
50 3 28.057828466248058 8.999568894212846 1.5454072822755842 0 0 0
51 3 31.17537554609428 8.999568958990727 1.5454256374770752 0 0 0
52 3 34.29292111451283 8.999568719993809 1.5454434570378628 0 0 0
53 3 37.41046201921462 8.999568522818013 1.5454540159860475 0 0 0
54 3 40.52800404262733 8.999568681074232 1.5454531976236054 0 0 0
55 3 1.5586963674111751 11.69941150549274 1.5456887524170617 0 0 0
56 3 4.676145001237182 11.699441283897553 1.5457231504870987 0 0 0
57 3 7.79371341554173 11.69943969236562 1.5455983284907329 0 0 0
58 3 10.911275910248904 11.699440077792323 1.5455134855743224 0 0 0
59 3 14.028834089732419 11.699440332831095 1.5454530378545248 0 0 0
60 3 17.14639160531878 11.699440013862224 1.5454140604769058 0 0 0
61 3 20.26394735757491 11.69943999605214 1.5453942263256477 0 0 0
62 3 23.381501624096316 11.69943965314576 1.5453897729236765 0 0 0
63 3 26.49905312982236 11.699439607490579 1.5453992946391057 0 0 0
64 3 29.616601898059358 11.699439264766745 1.545416315511873 0 0 0
65 3 32.7341486375418 11.699439174671774 1.5454348603339003 0 0 0
66 3 35.851692413824985 11.69943904294298 1.5454502884983825 0 0 0
67 3 38.969232714838036 11.69943874552256 1.5454546189403728 0 0 0
68 3 42.08677588148572 11.69943937102647 1.5454503779969848 0 0 0
69 3 3.1173955904943305 14.39928203259645 1.5457913483067867 0 0 0
70 3 6.234943177583843 14.399309098330649 1.5456477335464052 0 0 0
71 3 9.352497218882004 14.399311082568621 1.5455527043553379 0 0 0
72 3 12.470055394708163 14.399310465104648 1.5454803874970868 0 0 0
73 3 15.587613229321315 14.399310089878519 1.5454307698730536 0 0 0
74 3 18.70516968058982 14.39931043537954 1.5454021268769587 0 0 0
75 3 21.82272434722922 14.399309896449656 1.5453899349905005 0 0 0
76 3 24.94027764079902 14.39931034476147 1.5453932635771044 0 0 0
77 3 28.057828466248033 14.399309615952928 1.5454072822756086 0 0 0
78 3 31.17537554609429 14.399309680730939 1.5454256374770945 0 0 0
79 3 34.29292111451285 14.399309441733966 1.54544345703789 0 0 0
80 3 37.41046201921466 14.39930924455823 1.545454015986055 0 0 0
81 3 40.52800404262742 14.3993094028144 1.5454531976236308 0 0 0
82 3 1.5586963674116108 17.099152227233244 1.5456887524173235 0 0 0
83 3 4.676145001237814 17.099182005637537 1.545723150486913 0 0 0
84 3 7.793713415541924 17.09918041410564 1.5455983284907653 0 0 0
85 3 10.911275910248891 17.099180799532512 1.5455134855742003 0 0 0
86 3 14.028834089732255 17.099181054571236 1.5454530378545643 0 0 0
87 3 17.14639160531888 17.09918073560247 1.545414060476854 0 0 0
88 3 20.263947357574967 17.09918071779227 1.5453942263256377 0 0 0
89 3 23.38150162409625 17.099180374885826 1.545389772923657 0 0 0
90 3 26.49905312982229 17.099180329230748 1.5453992946391237 0 0 0
91 3 29.61660189805939 17.099179986506908 1.5454163155118807 0 0 0
92 3 32.73414863754184 17.099179896411833 1.5454348603338914 0 0 0
93 3 35.85169241382501 17.09917976468307 1.545450288498366 0 0 0
94 3 38.96923271483808 17.099179467262754 1.5454546189403997 0 0 0
95 3 42.08677588148573 17.09918009276666 1.5454503779969624 0 0 0
96 3 3.1173955904948665 19.799022754336992 1.5457913483056134 0 0 0
97 3 6.234943177583776 19.79904982007101 1.5456477335463026 0 0 0
98 3 9.352497218882311 19.799051804308814 1.545552704355341 0 0 0
99 3 12.470055394708215 19.799051186844796 1.545480387497213 0 0 0
100 3 15.587613229321365 19.799050811618564 1.5454307698730063 0 0 0
101 3 18.705169680589947 19.799051157119663 1.5454021268769202 0 0 0
102 3 21.822724347229215 19.79905061818969 1.5453899349904994 0 0 0
103 3 24.940277640798953 19.799051066501605 1.5453932635771017 0 0 0
104 3 28.057828466247955 19.79905033769309 1.545407282275648 0 0 0
105 3 31.17537554609427 19.799050402471046 1.5454256374770647 0 0 0
106 3 34.29292111451278 19.799050163474114 1.5454434570378923 0 0 0
107 3 37.41046201921462 19.799049966298277 1.5454540159860883 0 0 0
108 3 40.52800404262733 19.799050124554505 1.5454531976236148 0 0 0
109 3 1.5586963674115641 22.49889294897314 1.5456887524167926 0 0 0
110 3 4.676145001237413 22.49892272737816 1.54572315048756 0 0 0
111 3 7.793713415541692 22.498921135846157 1.5455983284907593 0 0 0
112 3 10.91127591024892 22.498921521272642 1.54551348557431 0 0 0
113 3 14.028834089732301 22.498921776311366 1.5454530378546318 0 0 0
114 3 17.146391605318936 22.498921457342583 1.5454140604768156 0 0 0
115 3 20.263947357574935 22.498921439532364 1.5453942263256453 0 0 0
116 3 23.381501624096238 22.498921096625903 1.545389772923723 0 0 0
117 3 26.499053129822336 22.49892105097088 1.5453992946391484 0 0 0
118 3 29.61660189805939 22.498920708247077 1.5454163155118756 0 0 0
119 3 32.73414863754189 22.49892061815197 1.5454348603338464 0 0 0
120 3 35.85169241382501 22.498920486423206 1.5454502884983508 0 0 0
121 3 38.96923271483819 22.498920189002924 1.545454618940401 0 0 0
122 3 42.086775881485806 22.498920814506775 1.5454503779969717 0 0 0
123 3 3.1173955904954647 25.198763476076472 1.5457913483065802 0 0 0
124 3 6.234943177584208 25.198790541811405 1.5456477335463956 0 0 0
125 3 9.352497218881867 25.19879252604912 1.5455527043553896 0 0 0
126 3 12.47005539470778 25.198791908584926 1.5454803874972471 0 0 0
127 3 15.587613229321224 25.198791533358744 1.5454307698729453 0 0 0
128 3 18.705169680589925 25.198791878859865 1.5454021268769156 0 0 0
129 3 21.82272434722923 25.198791339929887 1.5453899349904887 0 0 0
130 3 24.940277640799028 25.198791788241735 1.545393263577072 0 0 0
131 3 28.057828466248022 25.198791059433198 1.5454072822755915 0 0 0
132 3 31.175375546094234 25.198791124211194 1.5454256374770647 0 0 0
133 3 34.2929211145128 25.198790885214244 1.545443457037899 0 0 0
134 3 37.410462019214705 25.19879068803843 1.5454540159860963 0 0 0
135 3 40.52800404262735 25.198790846294685 1.5454531976236172 0 0 0
136 3 1.5586963674113465 27.89863367071311 1.5456887524171672 0 0 0
137 3 4.6761450012373915 27.898663449118335 1.5457231504874178 0 0 0
138 3 7.793713415541534 27.8986618575864 1.5455983284906443 0 0 0
139 3 10.911275910248586 27.898662243012915 1.5455134855744042 0 0 0
140 3 14.028834089732284 27.898662498051515 1.5454530378546179 0 0 0
141 3 17.146391605318914 27.898662179082685 1.5454140604768374 0 0 0
142 3 20.263947357574924 27.898662161272483 1.5453942263256613 0 0 0
143 3 23.38150162409619 27.898661818365994 1.5453897729236517 0 0 0
144 3 26.499053129822414 27.89866177271096 1.545399294639146 0 0 0
145 3 29.616601898059425 27.898661429987175 1.545416315511889 0 0 0
146 3 32.73414863754184 27.898661339892122 1.5454348603338735 0 0 0
147 3 35.85169241382506 27.898661208163354 1.5454502884983796 0 0 0
148 3 38.96923271483811 27.898660910743025 1.5454546189403355 0 0 0
149 3 42.08677588148573 27.898661536246898 1.5454503779969895 0 0 0
150 3 3.117395590495247 30.598504197817356 1.5457913483066155 0 0 0
151 3 6.234943177583417 30.598531263551553 1.545647733546354 0 0 0
152 3 9.352497218881664 30.598533247789295 1.5455527043553388 0 0 0
153 3 12.47005539470778 30.59853263032506 1.545480387497204 0 0 0
154 3 15.587613229321247 30.598532255098945 1.5454307698730234 0 0 0
155 3 18.705169680589922 30.598532600599956 1.545402126876949 0 0 0
156 3 21.822724347229215 30.59853206167004 1.5453899349904494 0 0 0
157 3 24.940277640799017 30.59853250998184 1.5453932635770875 0 0 0
158 3 28.057828466248043 30.598531781173346 1.5454072822755418 0 0 0
159 3 31.175375546094234 30.59853184595131 1.54542563747709 0 0 0
160 3 34.29292111451289 30.598531606954435 1.5454434570378472 0 0 0
161 3 37.410462019214755 30.598531409778577 1.5454540159860746 0 0 0
162 3 40.52800404262733 30.59853156803478 1.5454531976236163 0 0 0
163 3 1.5586963674115628 33.29837439245368 1.5456887524172418 0 0 0
164 3 4.676145001237493 33.29840417085813 1.5457231504871338 0 0 0
165 3 7.793713415541034 33.298402579326265 1.5455983284906207 0 0 0
166 3 10.911275910248467 33.29840296475286 1.5455134855743122 0 0 0
167 3 14.028834089732142 33.29840321979161 1.5454530378546099 0 0 0
168 3 17.14639160531887 33.298402900822914 1.5454140604768998 0 0 0
169 3 20.263947357574946 33.29840288301266 1.5453942263256357 0 0 0
170 3 23.38150162409619 33.29840254010621 1.545389772923705 0 0 0
171 3 26.499053129822425 33.2984024944512 1.545399294639088 0 0 0
172 3 29.616601898059404 33.29840215172746 1.545416315511922 0 0 0
173 3 32.73414863754182 33.29840206163234 1.5454348603338914 0 0 0
174 3 35.85169241382506 33.29840192990345 1.5454502884983667 0 0 0
175 3 38.9692327148381 33.29840163248324 1.5454546189404061 0 0 0
176 3 42.086775881485785 33.29840225798705 1.5454503779969777 0 0 0
177 3 3.117395590495606 35.998244919556974 1.5457913483053098 0 0 0
178 3 6.23494317758379 35.998271985290934 1.5456477335461372 0 0 0
179 3 9.352497218881602 35.99827396952922 1.5455527043551933 0 0 0
180 3 12.470055394707826 35.9982733520652 1.5454803874972634 0 0 0
181 3 15.587613229321121 35.99827297683907 1.5454307698731051 0 0 0
182 3 18.70516968058989 35.99827332234002 1.5454021268769536 0 0 0
183 3 21.822724347229272 35.9982727834102 1.545389934990485 0 0 0
184 3 24.940277640799028 35.99827323172197 1.5453932635771381 0 0 0
185 3 28.057828466248047 35.998272502913565 1.5454072822755565 0 0 0
186 3 31.17537554609429 35.99827256769138 1.545425637477089 0 0 0
187 3 34.2929211145128 35.9982723286945 1.5454434570378783 0 0 0
188 3 37.41046201921466 35.998272131518725 1.5454540159861003 0 0 0
189 3 40.52800404262742 35.998272289774896 1.545453197623622 0 0 0
190 3 1.5586963674116172 38.69811511419408 1.5456887524172984 0 0 0
191 3 4.676145001237463 38.69814489259821 1.5457231504872713 0 0 0
192 3 7.793713415541349 38.69814330106634 1.545598328490579 0 0 0
193 3 10.911275910248621 38.69814368649273 1.5455134855741968 0 0 0
194 3 14.028834089732221 38.69814394153184 1.545453037854677 0 0 0
195 3 17.146391605318833 38.69814362256311 1.5454140604769206 0 0 0
196 3 20.263947357574924 38.69814360475274 1.5453942263256617 0 0 0
197 3 23.381501624096202 38.69814326184639 1.5453897729236317 0 0 0
198 3 26.4990531298223 38.69814321619135 1.545399294639039 0 0 0
199 3 29.6166018980593 38.698142873467596 1.5454163155119507 0 0 0
200 3 32.73414863754184 38.698142783372404 1.5454348603339887 0 0 0
201 3 35.85169241382508 38.698142651643636 1.5454502884983854 0 0 0
202 3 38.969232714838085 38.69814235422332 1.5454546189403693 0 0 0
203 3 42.08677588148571 38.69814297972722 1.5454503779969815 0 0 0
204 3 3.1173955904947137 41.39798564129704 1.5457913483066603 0 0 0
205 3 6.23494317758369 41.398012707031604 1.5456477335462986 0 0 0
206 3 9.352497218881581 41.3980146912693 1.5455527043552544 0 0 0
207 3 12.470055394708023 41.398014073805385 1.5454803874971146 0 0 0
208 3 15.58761322932119 41.39801369857919 1.5454307698731438 0 0 0
209 3 18.705169680589822 41.39801404408025 1.5454021268769609 0 0 0
210 3 21.822724347229236 41.39801350515031 1.5453899349904443 0 0 0
211 3 24.940277640799 41.39801395346211 1.5453932635770953 0 0 0
212 3 28.057828466248033 41.398013224653646 1.5454072822756586 0 0 0
213 3 31.17537554609428 41.39801328943164 1.5454256374770858 0 0 0
214 3 34.29292111451283 41.39801305043468 1.5454434570378972 0 0 0
215 3 37.410462019214734 41.39801285325886 1.545454015986047 0 0 0
216 3 40.52800404262753 41.39801301151506 1.5454531976236137 0 0 0
218 2 4.67628330513785 0.8999559979918745 4.663516387066578 0 0 0
219 1 3.1173817606562597 1.799863343962992 3.1046955128286164 0 0 0
220 2 7.793812872618572 0.899957830603379 4.663410610086914 0 0 0
221 1 6.234988573373488 1.7999160846011635 3.104556188576465 0 0 0
222 1 9.352538186712573 1.7999136024135465 3.104457913099997 0 0 0
223 2 10.911347507651252 0.8999566397183102 4.663326123711618 0 0 0
224 1 12.470085258514017 1.79991387463572 3.104386491746506 0 0 0
225 2 14.028883719053042 0.8999571683450193 4.663265758905676 0 0 0
226 1 15.58763252219755 1.7999135750919413 3.1043369867211723 0 0 0
227 2 17.146420358033158 0.8999569929989895 4.6632268197822695 0 0 0
228 1 18.705179492101173 1.799913704310477 3.1043078117956457 0 0 0
229 2 20.263958861745976 0.8999571609494131 4.66320685383423 0 0 0
230 2 23.381498928913473 0.8999573922678049 4.663203261094239 0 0 0
231 1 21.82272685803642 1.7999136525220496 3.10429644855709 0 0 0
232 2 26.499039889383678 0.8999573856809628 4.6632117891661204 0 0 0
233 1 24.940273171288634 1.7999138785814708 3.104299235374316 0 0 0
234 2 29.6165841593332 0.8999580302692303 4.6632290786178 0 0 0
235 1 28.05781981557021 1.7999137005618535 3.104313378921471 0 0 0
236 1 31.17536646576315 1.799913729434957 3.1043319736409027 0 0 0
237 2 32.734131141559175 0.8999576358256665 4.663247501391416 0 0 0
238 1 34.292913463402776 1.7999137325188628 3.1043502631629316 0 0 0
239 2 35.851681874566964 0.8999588678058138 4.663263001092435 0 0 0
240 1 37.410460286080635 1.7999140454333857 3.104360450918558 0 0 0
241 2 38.969233504130735 0.8999578121828081 4.663267529705183 0 0 0
242 1 40.52800594787611 1.7999137447063802 3.1043597802012886 0 0 0
243 2 42.08678226259699 0.8999583318843781 4.663263151206925 0 0 0
244 1 1.5586618864494033 4.4998205093815224 3.104717891162096 0 0 0
245 1 4.6762295195406 4.499776310848082 3.104612848278764 0 0 0
246 2 3.11751374768594 3.599826956813736 4.663552761987031 0 0 0
247 1 7.793766832359638 4.499783902660553 3.104504662798122 0 0 0
248 2 6.235050706118517 3.5998250159768803 4.663465587755679 0 0 0
249 2 9.352582642819943 3.5998269333682664 4.6633656471219185 0 0 0
250 1 10.911313003281023 4.499784022590089 3.1044193442017654 0 0 0
251 2 12.470116361750623 3.5998275205600216 4.663293229344568 0 0 0
252 1 14.02885920999173 4.4997841373255785 3.104358555663867 0 0 0
253 2 15.587652377024996 3.599827407018925 4.6632434568641195 0 0 0
254 1 17.146405998144953 4.499784167975923 3.1043198437093897 0 0 0
255 2 18.705189178166375 3.5998278382477413 4.663214434495898 0 0 0
256 1 20.263953115695127 4.499784050584465 3.1043002424125636 0 0 0
257 1 23.381499571246415 4.499784121447623 3.104296062756207 0 0 0
258 2 21.82272789025524 3.5998275109694484 4.663203394740441 0 0 0
259 1 26.4990467914463 4.499784007369072 3.104305430718403 0 0 0
260 2 24.94026913009262 3.5998279118188274 4.663206015378151 0 0 0
261 1 29.61659336758529 4.499784214882309 3.1043224066989814 0 0 0
262 2 28.057811929054115 3.599827933576173 4.663219943091145 0 0 0
263 2 31.175357701819973 3.5998281532472087 4.663238368313643 0 0 0
264 1 32.734140008180056 4.499783957279769 3.1043416120411886 0 0 0
265 2 34.292905771743875 3.599828491578819 4.663256188927434 0 0 0
266 1 35.85168672623573 4.4997844404423635 3.1043568478477304 0 0 0
267 2 37.41045774073974 3.599828986505898 4.6632668330499225 0 0 0
268 1 38.96923300979905 4.49978407683843 3.1043611601873007 0 0 0
269 2 40.52800799308641 3.599828064560062 4.663265995145866 0 0 0
270 1 42.08677906871231 4.49978441959132 3.104356988906095 0 0 0
272 2 4.676283305137273 6.299696719732355 4.663516387066802 0 0 0
273 1 3.1173817606557237 7.199604065703024 3.104695512828347 0 0 0
274 2 7.7938128726180365 6.299698552343246 4.663410610086892 0 0 0
275 1 6.234988573373052 7.199656806340862 3.1045561885765034 0 0 0
276 1 9.352538186712277 7.19965432415361 3.104457913100076 0 0 0
277 2 10.911347507651325 6.299697361458353 4.663326123711543 0 0 0
278 1 12.470085258514146 7.199654596375997 3.104386491746473 0 0 0
279 2 14.02888371905319 6.299697890085165 4.663265758905617 0 0 0
280 1 15.587632522197659 7.199654296832069 3.1043369867210675 0 0 0
281 2 17.146420358033104 6.2996977147391044 4.663226819782272 0 0 0
282 1 18.705179492101212 7.199654426050534 3.1043078117956737 0 0 0
283 2 20.263958861745976 6.299697882689432 4.6632068538342635 0 0 0
284 2 23.381498928913633 6.299698114007935 4.6632032610942264 0 0 0
285 1 21.82272685803634 7.199654374262085 3.10429644855716 0 0 0
286 2 26.499039889383692 6.29969810742107 4.663211789166069 0 0 0
287 1 24.940273171288595 7.199654600321606 3.1042992353742593 0 0 0
288 2 29.61658415933318 6.299698752009359 4.663229078617928 0 0 0
289 1 28.05781981557015 7.199654422301982 3.1043133789215283 0 0 0
290 1 31.17536646576315 7.199654451175069 3.10433197364092 0 0 0
291 2 32.73413114155908 6.299698357565699 4.66324750139142 0 0 0
292 1 34.29291346340286 7.1996544542589564 3.1043502631629267 0 0 0
293 2 35.851681874566985 6.2996995895460195 4.66326300109242 0 0 0
294 1 37.41046028608054 7.199654767173473 3.104360450918587 0 0 0
295 2 38.969233504130735 6.2996985339228715 4.663267529705303 0 0 0
296 1 40.5280059478762 7.199654466446428 3.104359780201339 0 0 0
297 2 42.08678226259707 6.299699053624446 4.663263151206948 0 0 0
298 1 1.558661886450923 9.899561231121043 3.1047178911628204 0 0 0
299 1 4.67622951954076 9.899517032587555 3.104612848278674 0 0 0
300 2 3.117513747685983 8.999567678554174 4.663552761987367 0 0 0
301 1 7.793766832359853 9.899524624400765 3.104504662798159 0 0 0
302 2 6.235050706118491 8.999565737716734 4.6634655877555 0 0 0
303 2 9.352582642820238 8.999567655108477 4.663365647122024 0 0 0
304 1 10.911313003281188 9.89952474433045 3.1044193442019514 0 0 0
305 2 12.470116361750783 8.999568242300228 4.663293229344664 0 0 0
306 1 14.028859209991797 9.89952485906572 3.1043585556638504 0 0 0
307 2 15.58765237702502 8.999568128759133 4.663243456864017 0 0 0
308 1 17.146405998144985 9.899524889716051 3.104319843709293 0 0 0
309 2 18.70518917816629 8.999568559987864 4.6632144344958535 0 0 0
310 1 20.263953115695138 9.899524772324531 3.104300242412564 0 0 0
311 1 23.38149957124639 9.899524843187766 3.1042960627562035 0 0 0
312 2 21.822727890255308 8.99956823270965 4.663203394740472 0 0 0
313 1 26.49904679144629 9.899524729109189 3.1043054307183993 0 0 0
314 2 24.94026913009263 8.999568633559008 4.663206015378104 0 0 0
315 1 29.61659336758529 9.899524936622422 3.1043224066989583 0 0 0
316 2 28.05781192905407 8.999568655316342 4.663219943091167 0 0 0
317 2 31.175357701819994 8.999568874987332 4.663238368313644 0 0 0
318 1 32.734140008180006 9.899524679019883 3.1043416120411487 0 0 0
319 2 34.29290577174392 8.999569213318901 4.663256188927433 0 0 0
320 1 35.8516867262358 9.89952516218244 3.1043568478477526 0 0 0
321 2 37.41045774073983 8.999569708246026 4.663266833049918 0 0 0
322 1 38.96923300979907 9.899524798578573 3.1043611601872985 0 0 0
323 2 40.52800799308644 8.99956878630014 4.663265995145886 0 0 0
324 1 42.08677906871239 9.899525141331466 3.104356988906105 0 0 0
326 2 4.676283305137351 11.699437441471598 4.663516387066719 0 0 0
327 1 3.1173817606558747 12.599344787442673 3.104695512828341 0 0 0
328 2 7.793812872617921 11.699439274083783 4.663410610086842 0 0 0
329 1 6.234988573372945 12.59939752808096 3.1045561885765984 0 0 0
330 1 9.35253818671232 12.59939504589389 3.1044579131000525 0 0 0
331 2 10.911347507651337 11.699438083198764 4.663326123711732 0 0 0
332 1 12.470085258514102 12.599395318116207 3.1043864917465176 0 0 0
333 2 14.028883719053171 11.69943861182535 4.663265758905647 0 0 0
334 1 15.587632522197689 12.599395018572244 3.1043369867210395 0 0 0
335 2 17.146420358033154 11.699438436479175 4.663226819782179 0 0 0
336 1 18.70517949210139 12.599395147790652 3.1043078117955925 0 0 0
337 2 20.263958861745948 11.699438604429528 4.663206853834244 0 0 0
338 2 23.381498928913643 11.6994388357481 4.663203261094275 0 0 0
339 1 21.822726858036386 12.599395096002153 3.1042964485572044 0 0 0
340 2 26.499039889383603 11.699438829161064 4.663211789166123 0 0 0
341 1 24.940273171288485 12.599395322061708 3.1042992353742993 0 0 0
342 2 29.616584159333126 11.699439473749438 4.663229078617899 0 0 0
343 1 28.057819815570074 12.599395144042019 3.104313378921543 0 0 0
344 1 31.175366465763172 12.599395172915191 3.1043319736409085 0 0 0
345 2 32.73413114155906 11.699439079305842 4.663247501391397 0 0 0
346 1 34.29291346340286 12.599395175999103 3.10435026316291 0 0 0
347 2 35.851681874566964 11.699440311286176 4.663263001092387 0 0 0
348 1 37.410460286080564 12.599395488913643 3.1043604509185143 0 0 0
349 2 38.969233504130735 11.69943925566299 4.663267529705203 0 0 0
350 1 40.528005947876125 12.599395188186532 3.104359780201301 0 0 0
351 2 42.08678226259699 11.699439775364578 4.663263151206946 0 0 0
352 1 1.558661886450444 15.299301952861455 3.1047178911627222 0 0 0
353 1 4.676229519540862 15.299257754327861 3.1046128482789763 0 0 0
354 2 3.1175137476861483 14.399308400293208 4.6635527619872965 0 0 0
355 1 7.793766832359747 15.299265346140823 3.1045046627981834 0 0 0
356 2 6.235050706118518 14.399306459456684 4.663465587755682 0 0 0
357 2 9.352582642820051 14.399308376848674 4.663365647121964 0 0 0
358 1 10.91131300328107 15.299265466070597 3.1044193442017884 0 0 0
359 2 12.470116361750527 14.399308964040415 4.663293229344595 0 0 0
360 1 14.028859209991692 15.299265580805848 3.104358555663845 0 0 0
361 2 15.587652377025035 14.399308850499251 4.663243456864026 0 0 0
362 1 17.14640599814503 15.299265611456256 3.104319843709266 0 0 0
363 2 18.705189178166346 14.399309281728046 4.663214434495834 0 0 0
364 1 20.263953115695195 15.299265494064649 3.104300242412549 0 0 0
365 1 23.381499571246437 15.299265564927875 3.1042960627562035 0 0 0
366 2 21.822727890255376 14.399308954449678 4.66320339474048 0 0 0
367 1 26.499046791446094 15.299265450849317 3.1043054307183975 0 0 0
368 2 24.940269130092673 14.39930935529907 4.663206015378117 0 0 0
369 1 29.616593367585217 15.299265658362579 3.104322406698995 0 0 0
370 2 28.057811929054026 14.399309377056467 4.66321994309117 0 0 0
371 2 31.175357701819973 14.399309596727486 4.663238368313653 0 0 0
372 1 32.734140008180006 15.299265400760016 3.1043416120411846 0 0 0
373 2 34.29290577174389 14.399309935059055 4.663256188927496 0 0 0
374 1 35.85168672623575 15.299265883922594 3.104356847847771 0 0 0
375 2 37.41045774073983 14.399310429986192 4.663266833049888 0 0 0
376 1 38.96923300979905 15.299265520318736 3.1043611601873167 0 0 0
377 2 40.52800799308648 14.399309508040272 4.663265995145859 0 0 0
378 1 42.08677906871231 15.299265863071563 3.104356988906125 0 0 0
380 2 4.676283305137606 17.099178163212162 4.6635163870668475 0 0 0
381 1 3.117381760655681 17.999085509183207 3.1046955128282834 0 0 0
382 2 7.793812872618151 17.099179995823643 4.663410610086873 0 0 0
383 1 6.234988573373253 17.999138249821176 3.104556188576548 0 0 0
384 1 9.352538186712398 17.999135767634048 3.1044579131000387 0 0 0
385 2 10.91134750765128 17.09917880493871 4.66332612371171 0 0 0
386 1 12.470085258513983 17.999136039856307 3.1043864917465616 0 0 0
387 2 14.028883719053171 17.099179333565548 4.663265758905636 0 0 0
388 1 15.58763252219762 17.9991357403123 3.1043369867210284 0 0 0
389 2 17.146420358033215 17.09917915821929 4.663226819782159 0 0 0
390 1 18.705179492101394 17.999135869530843 3.1043078117956173 0 0 0
391 2 20.263958861745994 17.09917932616965 4.663206853834268 0 0 0
392 2 23.381498928913597 17.099179557488227 4.663203261094275 0 0 0
393 1 21.822726858036397 17.999135817742307 3.1042964485572035 0 0 0
394 2 26.49903988938354 17.09917955090126 4.663211789166124 0 0 0
395 1 24.9402731712885 17.99913604380189 3.1042992353742997 0 0 0
396 2 29.6165841593332 17.099180195489648 4.663229078617898 0 0 0
397 1 28.057819815570074 17.99913586578219 3.1043133789215376 0 0 0
398 1 31.17536646576316 17.99913589465534 3.1043319736409045 0 0 0
399 2 32.73413114155919 17.099179801045985 4.663247501391397 0 0 0
400 1 34.29291346340288 17.999135897739258 3.1043502631629005 0 0 0
401 2 35.851681874566985 17.099181033026305 4.663263001092431 0 0 0
402 1 37.41046028608041 17.99913621065376 3.104360450918575 0 0 0
403 2 38.969233504130806 17.099179977403185 4.663267529705279 0 0 0
404 1 40.52800594787618 17.99913590992673 3.1043597802013236 0 0 0
405 2 42.086782262597 17.099180497104687 4.66326315120702 0 0 0
406 1 1.5586618864501098 20.699042674601735 3.1047178911625815 0 0 0
407 1 4.676229519540452 20.698998476068024 3.10461284827867 0 0 0
408 2 3.117513747685543 19.79904912203384 4.663552761987143 0 0 0
409 1 7.793766832359752 20.699006067881115 3.1045046627981256 0 0 0
410 2 6.235050706118248 19.799047181197114 4.663465587755548 0 0 0
411 2 9.352582642820112 19.79904909858885 4.663365647121939 0 0 0
412 1 10.911313003281178 20.69900618781074 3.104419344201881 0 0 0
413 2 12.470116361750641 19.79904968578049 4.6632932293447125 0 0 0
414 1 14.028859209991781 20.699006302545996 3.1043585556639184 0 0 0
415 2 15.587652377025234 19.799049572239394 4.663243456864015 0 0 0
416 1 17.14640599814513 20.69900633319639 3.104319843709189 0 0 0
417 2 18.705189178166407 19.79905000346813 4.663214434495828 0 0 0
418 1 20.263953115695216 20.699006215804722 3.104300242412541 0 0 0
419 1 23.381499571246362 20.69900628666792 3.1042960627562004 0 0 0
420 2 21.822727890255344 19.799049676189814 4.663203394740447 0 0 0
421 1 26.499046791446144 20.69900617258948 3.1043054307184375 0 0 0
422 2 24.940269130092545 19.799050077039205 4.663206015378152 0 0 0
423 1 29.616593367585207 20.69900638010263 3.1043224066989734 0 0 0
424 2 28.05781192905396 19.799050098796616 4.663219943091155 0 0 0
425 2 31.175357701819973 19.799050318467586 4.663238368313617 0 0 0
426 1 32.734140008180056 20.699006122500116 3.1043416120411553 0 0 0
427 2 34.29290577174382 19.79905065679918 4.663256188927462 0 0 0
428 1 35.85168672623582 20.699006605662728 3.104356847847734 0 0 0
429 2 37.41045774073974 19.799051151726342 4.663266833049893 0 0 0
430 1 38.96923300979905 20.699006242058932 3.1043611601873087 0 0 0
431 2 40.52800799308641 19.799050229780434 4.663265995145856 0 0 0
432 1 42.08677906871231 20.699006584811748 3.1043569889061273 0 0 0
434 2 4.67628330513722 22.498918884952268 4.663516387066896 0 0 0
435 1 3.117381760655834 23.398826230923714 3.1046955128289513 0 0 0
436 2 7.793812872618461 22.498920717563905 4.663410610086858 0 0 0
437 1 6.23498857337331 23.39887897156154 3.1045561885767645 0 0 0
438 1 9.352538186712374 23.39887648937435 3.104457913100007 0 0 0
439 2 10.911347507651213 22.49891952667903 4.663326123711736 0 0 0
440 1 12.470085258513999 23.398876761596384 3.1043864917466433 0 0 0
441 2 14.028883719053342 22.498920055305675 4.663265758905637 0 0 0
442 1 15.587632522197778 23.39887646205254 3.1043369867209547 0 0 0
443 2 17.146420358033268 22.49891987995944 4.663226819782066 0 0 0
444 1 18.705179492101383 23.39887659127098 3.104307811795583 0 0 0
445 2 20.263958861745966 22.498920047909763 4.663206853834281 0 0 0
446 2 23.38149892891359 22.498920279228308 4.663203261094231 0 0 0
447 1 21.822726858036365 23.398876539482384 3.10429644855721 0 0 0