LAMMPS data file via write_data, version 2 Aug 2023, timestep = 2217, units = metal

46400 atoms
3 atom types

0 1558.764912179135 xlo xhi
0 86.39567479890225 ylo yhi
0 50 zlo zhi
0 0 0 xy xz yz

Masses

1 95.94
2 32.065
3 32.065

Atoms # atomic

1 3 1.5586809875032925 0.8999457216601883 1.5468122085750908 0 0 0
2 3 4.676037540837435 0.8999079594451531 1.5466993239795894 0 0 0
3 3 7.793427507438053 0.8999439576344265 1.5464489992929036 0 0 0
4 3 10.910846690299499 0.8999597704920395 1.546281988833521 0 0 0
5 3 14.02828291339186 0.8999514666815598 1.5461481444614287 0 0 0
6 3 17.145736001321243 0.8999339676612607 1.546124788265715 0 0 0
7 3 20.263138105587288 0.899921831068384 1.5461534673696935 0 0 0
8 3 23.380705748393066 0.8999556483959446 1.5459207496952263 0 0 0
9 3 26.498260310138747 0.8999630536560353 1.545690577466763 0 0 0
10 3 29.61588705401919 0.8999577711391145 1.5454718070922058 0 0 0
11 3 3.1173606374041567 3.599783934774998 1.5467789411156052 0 0 0
12 3 6.23472386047761 3.5997850160321168 1.5465734585903879 0 0 0
13 3 9.352136809402069 3.5998267585148764 1.5463602168238488 0 0 0
14 3 12.469557181877024 3.599810215624044 1.5462078501086745 0 0 0
15 3 15.587029293238302 3.5998206931192334 1.5461307706472744 0 0 0
16 3 18.704419684321575 3.599783933728402 1.5461205155011988 0 0 0
17 3 21.821892537679545 3.5998155832319636 1.546045893144396 0 0 0
18 3 24.939475048856224 3.599819913254906 1.5458083987382054 0 0 0
19 3 28.05707119451984 3.599832287565747 1.5455744370914564 0 0 0
20 3 31.174683768663204 3.5998238059081826 1.545385729315338 0 0 0
21 3 1.5586809875058607 6.2996753965906755 1.546812208577675 0 0 0
22 3 4.6760375408370685 6.299637634376917 1.5466993239823967 0 0 0
23 3 7.793427507438734 6.299673632564453 1.5464489992909551 0 0 0
24 3 10.910846690299095 6.299689445422723 1.5462819888328152 0 0 0
25 3 14.028282913391571 6.299681141612684 1.5461481444613454 0 0 0
26 3 17.145736001321655 6.299663642593016 1.5461247882655031 0 0 0
27 3 20.26313810558756 6.299651506000192 1.5461534673707888 0 0 0
28 3 23.380705748394178 6.299685323328659 1.5459207496942495 0 0 0
29 3 26.498260310139266 6.299692728588828 1.545690577464952 0 0 0
30 3 29.61588705401912 6.29968744606927 1.545471807089936 0 0 0
31 3 3.1173606374025518 8.999513609704689 1.5467789411179214 0 0 0
32 3 6.2347238604769935 8.999514690964029 1.5465734585903448 0 0 0
33 3 9.352136809401166 8.999556433446452 1.5463602168243187 0 0 0
34 3 12.469557181877086 8.99953989055548 1.5462078501087542 0 0 0
35 3 15.587029293238505 8.999550368050741 1.5461307706468674 0 0 0
36 3 18.70441968432157 8.999513608659624 1.546120515501587 0 0 0
37 3 21.821892537679773 8.999545258163065 1.5460458931433179 0 0 0
38 3 24.939475048856604 8.99954958818622 1.5458083987378026 0 0 0
39 3 28.05707119452047 8.999561962495877 1.5455744370914564 0 0 0
40 3 31.174683768662582 8.99955348083915 1.545385729315079 0 0 0
41 3 1.5586809875106684 11.699405071520411 1.5468122085737808 0 0 0
42 3 4.676037540838172 11.699367309307993 1.5466993239816347 0 0 0
43 3 7.793427507438545 11.699403307495428 1.5464489992923844 0 0 0
44 3 10.910846690299238 11.699419120353882 1.5462819888324755 0 0 0
45 3 14.028282913391601 11.699410816544278 1.5461481444611935 0 0 0
46 3 17.14573600132151 11.699393317524542 1.5461247882657843 0 0 0
47 3 20.263138105587842 11.699381180931734 1.5461534673704311 0 0 0
48 3 23.380705748394018 11.699414998259513 1.5459207496939709 0 0 0
49 3 26.498260310139358 11.699422403519902 1.545690577464667 0 0 0
50 3 29.615887054018486 11.699417121000803 1.545471807090105 0 0 0
51 3 3.117360637403686 14.399243284636476 1.5467789411161952 0 0 0
52 3 6.234723860477579 14.399244365894923 1.546573458589316 0 0 0
53 3 9.3521368094013 14.399286108377229 1.5463602168236967 0 0 0
54 3 12.469557181876967 14.399269565486666 1.5462078501087242 0 0 0
55 3 15.587029293238432 14.399280042982138 1.546130770647549 0 0 0
56 3 18.704419684321643 14.399243283590934 1.5461205155018307 0 0 0
57 3 21.821892537679556 14.399274933094146 1.5460458931433199 0 0 0
58 3 24.93947504885677 14.399279263116782 1.5458083987384836 0 0 0
59 3 28.057071194520212 14.399291637427437 1.545574437091629 0 0 0
60 3 31.174683768662923 14.39928315577039 1.5453857293153561 0 0 0
61 3 1.5586809875075598 17.099134746453633 1.5468122085760785 0 0 0
62 3 4.676037540837725 17.099096984239956 1.5466993239826243 0 0 0
63 3 7.793427507438576 17.099132982427363 1.5464489992913122 0 0 0
64 3 10.910846690299758 17.099148795285206 1.5462819888329804 0 0 0
65 3 14.028282913391912 17.09914049147588 1.546148144461544 0 0 0
66 3 17.14573600132153 17.099122992455978 1.5461247882656235 0 0 0
67 3 20.263138105587934 17.099110855863028 1.5461534673704664 0 0 0
68 3 23.38070574839367 17.099144673190636 1.545920749694433 0 0 0
69 3 26.49826031013946 17.099152078452075 1.5456905774653193 0 0 0
70 3 29.61588705401879 17.099146795931667 1.5454718070906595 0 0 0
71 3 3.117360637401058 19.79897295956801 1.5467789411178947 0 0 0
72 3 6.234723860478389 19.798974040826327 1.5465734585906326 0 0 0
73 3 9.35213680940156 19.799015783308658 1.546360216823388 0 0 0
74 3 12.469557181876896 19.798999240418276 1.5462078501089125 0 0 0
75 3 15.587029293238313 19.799009717913602 1.5461307706470802 0 0 0
76 3 18.704419684321767 19.798972958522555 1.5461205155010256 0 0 0
77 3 21.82189253767984 19.799004608025722 1.5460458931440482 0 0 0
78 3 24.939475048857133 19.7990089380492 1.5458083987386286 0 0 0
79 3 28.057071194520056 19.799021312359397 1.5455744370910613 0 0 0
80 3 31.174683768662696 19.79901283070164 1.545385729316339 0 0 0
81 3 1.558680987508897 22.498864421385026 1.5468122085752196 0 0 0
82 3 4.676037540838192 22.498826659170433 1.5466993239810978 0 0 0
83 3 7.7934275074388815 22.498862657358067 1.5464489992918373 0 0 0
84 3 10.910846690299 22.498878470216425 1.5462819888326407 0 0 0
85 3 14.02828291339169 22.49887016640707 1.5461481444614287 0 0 0
86 3 17.145736001321396 22.498852667387393 1.5461247882657267 0 0 0
87 3 20.263138105586997 22.49884053079433 1.5461534673713557 0 0 0
88 3 23.380705748394426 22.4988743481229 1.545920749694475 0 0 0
89 3 26.498260310139575 22.4988817533832 1.5456905774635306 0 0 0
90 3 29.615887054018184 22.498876470863504 1.5454718070901692 0 0 0
91 3 3.1173606374039315 25.19870263450103 1.5467789411170936 0 0 0
92 3 6.234723860477589 25.19870371575795 1.546573458588791 0 0 0
93 3 9.352136809401339 25.198745458239404 1.5463602168238768 0 0 0
94 3 12.469557181877521 25.198728915349044 1.5462078501086962 0 0 0
95 3 15.587029293238743 25.198739392844764 1.5461307706473633 0 0 0
96 3 18.70441968432145 25.198702633453767 1.5461205155016973 0 0 0
97 3 21.82189253768009 25.198734282956817 1.5460458931436547 0 0 0
98 3 24.939475048856707 25.198738612979845 1.5458083987383442 0 0 0
99 3 28.057071194520894 25.198750987289735 1.5455744370921154 0 0 0
100 3 31.174683768663215 25.198742505633202 1.5453857293147837 0 0 0
101 3 1.5586809875037126 27.89859409631745 1.5468122085772993 0 0 0
102 3 4.67603754083816 27.898556334103 1.546699323982231 0 0 0
103 3 7.793427507439334 27.898592332289414 1.5464489992926875 0 0 0
104 3 10.910846690299476 27.898608145147854 1.5462819888326564 0 0 0
105 3 14.028282913392296 27.898599841338203 1.546148144461643 0 0 0
106 3 17.14573600132169 27.898582342318623 1.54612478826533 0 0 0
107 3 20.263138105587412 27.898570205725154 1.5461534673710053 0 0 0
108 3 23.380705748393588 27.898604023054634 1.5459207496947025 0 0 0
109 3 26.498260310138935 27.898611428314428 1.545690577465371 0 0 0
110 3 29.61588705401894 27.898606145795302 1.5454718070902926 0 0 0
111 3 3.1173606374046927 30.598432309431036 1.5467789411162276 0 0 0
112 3 6.234723860478335 30.59843339068972 1.5465734585918811 0 0 0
113 3 9.352136809401692 30.598475133172133 1.546360216824032 0 0 0
114 3 12.469557181877459 30.59845859028081 1.5462078501081746 0 0 0
115 3 15.58702929323897 30.59846906777587 1.5461307706474354 0 0 0
116 3 18.704419684321394 30.59843230838513 1.5461205155015219 0 0 0
117 3 21.82189253767976 30.59846395788893 1.546045893144203 0 0 0
118 3 24.939475048857528 30.59846828791259 1.5458083987380458 0 0 0
119 3 28.057071194520347 30.598480662221714 1.5455744370911348 0 0 0
120 3 31.174683768662387 30.598472180564883 1.5453857293154305 0 0 0
121 3 1.5586809875076613 33.298323771244455 1.5468122085716416 0 0 0
122 3 4.676037540838463 33.298286009033454 1.5466993239799478 0 0 0
123 3 7.793427507438646 33.2983220072219 1.5464489992927593 0 0 0
124 3 10.910846690298186 33.29833782008052 1.5462819888326589 0 0 0
125 3 14.028282913392177 33.298329516269796 1.5461481444605663 0 0 0
126 3 17.145736001321936 33.29831201724946 1.5461247882663998 0 0 0
127 3 20.263138105587412 33.2982998806571 1.5461534673706365 0 0 0
128 3 23.380705748394394 33.298333697984845 1.5459207496940195 0 0 0
129 3 26.498260310139855 33.298341103245264 1.5456905774624836 0 0 0
130 3 29.61588705401806 33.29833582072542 1.5454718070890838 0 0 0
131 3 3.1173606374043397 35.998161984362554 1.5467789411129074 0 0 0
132 3 6.2347238604790185 35.998163065620396 1.5465734585887851 0 0 0
133 3 9.352136809401193 35.998204808104006 1.5463602168247665 0 0 0
134 3 12.469557181876356 35.99818826521269 1.546207850108022 0 0 0
135 3 15.587029293238743 35.998198742707245 1.5461307706473233 0 0 0
136 3 18.704419684321824 35.998161983316166 1.5461205155020443 0 0 0
137 3 21.82189253767959 35.99819363281931 1.5460458931438992 0 0 0
138 3 24.939475048856927 35.9981979628416 1.5458083987393747 0 0 0
139 3 28.057071194521175 35.998210337152116 1.5455744370921316 0 0 0
140 3 31.174683768663492 35.99820185549528 1.5453857293161601 0 0 0
141 3 1.558680987507354 38.698053446181476 1.5468122085844516 0 0 0
142 3 4.67603754083638 38.698015683965835 1.5466993239827596 0 0 0
143 3 7.793427507438664 38.69805168215321 1.5464489992905426 0 0 0
144 3 10.910846690298445 38.698067495011244 1.5462819888338444 0 0 0
145 3 14.02828291339152 38.698059191201686 1.546148144461176 0 0 0
146 3 17.145736001321282 38.698041692181036 1.5461247882669875 0 0 0
147 3 20.26313810558808 38.698029555588654 1.5461534673698554 0 0 0
148 3 23.380705748393463 38.69806337291696 1.5459207496953338 0 0 0
149 3 26.498260310139244 38.69807077817689 1.5456905774659715 0 0 0
150 3 29.615887054018817 38.69806549565757 1.5454718070905344 0 0 0
151 3 3.117360637405076 41.39789165929268 1.5467789411227295 0 0 0
152 3 6.234723860478076 41.3978927405511 1.5465734585852515 0 0 0
153 3 9.352136809400976 41.39793448303408 1.546360216823611 0 0 0
154 3 12.46955718187632 41.39791794014363 1.5462078501078813 0 0 0
155 3 15.587029293238452 41.39792841763878 1.546130770647039 0 0 0
156 3 18.70441968432199 41.3978916582477 1.5461205155011983 0 0 0
157 3 21.821892537679016 41.397923307752116 1.5460458931438117 0 0 0
158 3 24.939475048856604 41.39792763777502 1.5458083987383375 0 0 0
159 3 28.05707119452047 41.397940012085044 1.5455744370924691 0 0 0
160 3 31.17468376866315 41.39793153042689 1.5453857293157562 0 0 0
163 1 3.1174226005556225 1.7998976285630215 3.105756593999055 0 0 0
165 1 6.234845140958669 1.799897013663469 3.105562981092463 0 0 0
166 1 9.352215973496097 1.7999343979711993 3.105341195725543 0 0 0
168 1 12.46962494652996 1.7999184757248285 3.1052105254082387 0 0 0
170 1 15.587033403623863 1.7999186215066512 3.1051052043489102 0 0 0
172 1 18.704428179790817 1.799916542205031 3.1051301896442527 0 0 0
173 2 20.263348108894444 0.8999782216184488 4.663918924944895 0 0 0
174 2 23.380900003697608 0.8999568107355294 4.663731956620162 0 0 0
175 1 21.82202788615328 1.7998953796359831 3.104934234146255 0 0 0
176 2 26.49848067297122 0.8999477240787401 4.663505008620307 0 0 0
177 1 24.939588249398998 1.799909277191811 3.1047203085684814 0 0 0
178 2 29.616059616334066 0.8999638102026927 4.663276686807341 0 0 0
179 1 28.057168010072623 1.799903911937057 3.104476949803079 0 0 0
180 1 31.174764723262122 1.7999065015090159 3.1042922628050382 0 0 0
181 1 1.5587128413485838 4.499787082141299 3.105800024267423 0 0 0
182 1 4.676137764829018 4.499747965369747 3.1056755459764673 0 0 0
184 1 7.793527319280528 4.499788314849403 3.105443775853615 0 0 0
187 1 10.910918987159715 4.499799071051003 3.1052718779624366 0 0 0
189 1 14.028333997065102 4.499781821447334 3.1051449277475967 0 0 0
191 1 17.145741046528254 4.499787371459776 3.10511138427361 0 0 0
193 1 20.263166361801982 4.4997227295579325 3.105063908438236 0 0 0
194 1 23.380802248842553 4.499771636587911 3.1048300170405745 0 0 0
195 2 21.822139285942946 3.5998123926608327 4.663825640328145 0 0 0
196 1 26.498375812610995 4.499770325996515 3.1045970027899203 0 0 0
197 2 24.93970083178974 3.599830558297749 4.66362169598698 0 0 0
198 1 29.615967695002166 4.4997697851515 3.1043787777074 0 0 0
199 2 28.05727413095103 3.5998218950676555 4.66338702529487 0 0 0
200 2 31.174843076184075 3.5998233422181336 4.663189117056865 0 0 0
203 1 3.1174226005538026 7.199627303494991 3.1057565939934895 0 0 0
205 1 6.234845140959264 7.19962668859433 3.1055629810928895 0 0 0
206 1 9.352215973496234 7.199664072902554 3.1053411957274686 0 0 0
208 1 12.469624946529462 7.199648150656264 3.105210525408352 0 0 0
210 1 15.587033403623801 7.199648296437719 3.105105204348974 0 0 0
212 1 18.704428179791044 7.199646217136448 3.105130189643258 0 0 0
213 2 20.263348108895137 6.29970789655013 4.6639189249446 0 0 0
214 2 23.380900003698592 6.299686485668261 4.663731956620923 0 0 0
215 1 21.822027886151165 7.199625054566133 3.1049342341463237 0 0 0
216 2 26.49848067297202 6.299677399011795 4.6635050086221685 0 0 0
217 1 24.93958824939676 7.199638952123095 3.1047203085685426 0 0 0
218 2 29.616059616334137 6.299693485132908 4.663276686809764 0 0 0
219 1 28.057168010069297 7.199633586871784 3.104476949803049 0 0 0
220 1 31.174764723265376 7.199636176441585 3.104292262804932 0 0 0
221 1 1.558712841347758 9.899516757073096 3.105800024271182 0 0 0
222 1 4.676137764827057 9.899477640301079 3.105675545975054 0 0 0
224 1 7.793527319280016 9.89951798978081 3.105443775852152 0 0 0
227 1 10.910918987159777 9.899528745982037 3.105271877962667 0 0 0
229 1 14.02833399706517 9.899511496378869 3.1051449277479715 0 0 0
231 1 17.14574104652855 9.899517046391626 3.1051113842731564 0 0 0
233 1 20.263166361801293 9.899452404490074 3.105063908438723 0 0 0
234 1 23.38080224884218 9.899501311520712 3.1048300170403826 0 0 0
235 2 21.82213928594272 8.999542067592127 4.663825640328775 0 0 0
236 1 26.49837581261007 9.899500000928567 3.104597002789829 0 0 0
237 2 24.93970083179035 8.999560233229337 4.663621695987233 0 0 0
238 1 29.61596769500281 9.89949946008302 3.104378777707397 0 0 0
239 2 28.057274130951857 8.999551569997932 4.663387025294531 0 0 0
240 2 31.174843076183556 8.999553017148784 4.66318911705702 0 0 0
243 1 3.1174226005561225 12.599356978425083 3.1057565939970364 0 0 0
245 1 6.234845140958862 12.599356363525843 3.1055629810939807 0 0 0
246 1 9.35221597349607 12.599393747833739 3.105341195726898 0 0 0
248 1 12.469624946529297 12.599377825587574 3.1052105254087934 0 0 0
250 1 15.587033403623833 12.59937797136921 3.1051052043489533 0 0 0
252 1 18.704428179790558 12.5993758920681 3.1051301896431087 0 0 0
253 2 20.263348108895485 11.699437571481653 4.663918924944655 0 0 0
254 2 23.380900003698244 11.699416160599288 4.663731956621263 0 0 0
255 1 21.822027886151403 12.59935472949791 3.104934234146326 0 0 0
256 2 26.498480672971976 11.69940707394308 4.663505008622344 0 0 0
257 1 24.939588249396955 12.599368627056409 3.1047203085685746 0 0 0
258 2 29.616059616333455 11.699423160064457 4.663276686809809 0 0 0
259 1 28.05716801007024 12.599363261802942 3.104476949803058 0 0 0
260 1 31.17476472326634 12.59936585137271 3.104292262805025 0 0 0
261 1 1.5587128413464215 15.299246432004209 3.1058000242671198 0 0 0
262 1 4.676137764828805 15.29920731523211 3.105675545978287 0 0 0
264 1 7.793527319280208 15.299247664712345 3.105443775852724 0 0 0
267 1 10.910918987159425 15.299258420913338 3.105271877961321 0 0 0
269 1 14.028333997065134 15.299241171310223 3.105144927747786 0 0 0
271 1 17.14574104652853 15.299246721322932 3.105111384273277 0 0 0
273 1 20.263166361801474 15.299182079420975 3.1050639084385327 0 0 0
274 1 23.380802248842635 15.299230986453365 3.104830017040461 0 0 0
275 2 21.82213928594262 14.399271742523657 4.663825640328924 0 0 0
276 1 26.49837581261028 15.299229675858816 3.1045970027899217 0 0 0
277 2 24.939700831790237 14.39928990815989 4.663621695986759 0 0 0
278 1 29.61596769500285 15.299229135015812 3.1043787777073764 0 0 0
279 2 28.05727413095131 14.399281244929371 4.663387025294549 0 0 0
280 2 31.17484307618394 14.399282692080357 4.663189117056795 0 0 0
283 1 3.117422600553975 17.99908665335593 3.105756593994506 0 0 0
285 1 6.234845140959917 17.99908603845645 3.1055629810931356 0 0 0
286 1 9.352215973496607 17.999123422764956 3.1053411957267705 0 0 0
288 1 12.469624946529287 17.99910750051904 3.1052105254085 0 0 0
290 1 15.58703340362403 17.999107646301017 3.1051052043489946 0 0 0
292 1 18.704428179790707 17.999105566999337 3.1051301896437375 0 0 0
293 2 20.263348108895375 17.099167246413003 4.663918924944641 0 0 0
294 2 23.38090000369799 17.099145835530425 4.663731956620823 0 0 0
295 1 21.822027886151115 17.99908440442964 3.1049342341463784 0 0 0
296 2 26.498480672971976 17.09913674887525 4.663505008621831 0 0 0
297 1 24.93958824939797 17.99909830198672 3.1047203085685338 0 0 0
298 2 29.61605961633392 17.099152834995028 4.66327668680911 0 0 0
299 1 28.05716801006936 17.99909293673318 3.104476949803108 0 0 0
300 1 31.174764723264662 17.999095526305815 3.104292262805027 0 0 0
301 1 1.558712841346285 20.698976106935646 3.1058000242717116 0 0 0
302 1 4.676137764827136 20.69893699016399 3.105675545975493 0 0 0
304 1 7.793527319281833 20.698977339643836 3.1054437758534346 0 0 0
307 1 10.9109189871593 20.698988095844573 3.105271877962583 0 0 0
309 1 14.028333997065143 20.6989708462416 3.105144927747838 0 0 0
311 1 17.145741046528578 20.698976396254402 3.105111384273211 0 0 0
313 1 20.2631663618016 20.69891175435342 3.1050639084385048 0 0 0
314 1 23.38080224884175 20.69896066138316 3.1048300170403924 0 0 0
315 2 21.822139285942775 19.799001417455088 4.663825640328554 0 0 0
316 1 26.498375812608934 20.69895935078855 3.104597002789895 0 0 0
317 2 24.939700831790578 19.799019583092157 4.663621695986373 0 0 0
318 1 29.61596769500436 20.69895880994565 3.1043787777073306 0 0 0
319 2 28.057274130951278 19.799010919861463 4.663387025295043 0 0 0
320 2 31.174843076183848 19.799012367011805 4.663189117055667 0 0 0
323 1 3.1174226005576915 23.398816328288646 3.105756593995714 0 0 0
325 1 6.234845140959505 23.398815713387837 3.105562981092814 0 0 0
326 1 9.352215973496042 23.398853097696005 3.105341195726996 0 0 0
328 1 12.469624946529319 23.398837175450065 3.105210525408759 0 0 0
330 1 15.587033403623858 23.398837321232094 3.1051052043490976 0 0 0
332 1 18.704428179791122 23.398835241930637 3.105130189642671 0 0 0
333 2 20.263348108895112 22.498896921344027 4.663918924944371 0 0 0
334 2 23.38090000369848 22.498875510462508 4.663731956620757 0 0 0
335 1 21.822027886152117 23.39881407936128 3.10493423414657 0 0 0
336 2 26.498480672971862 22.498866423806312 4.663505008623601 0 0 0
337 1 24.93958824939588 23.39882797691844 3.104720308568581 0 0 0
338 2 29.61605961633333 22.498882509927036 4.6632766868096525 0 0 0
339 1 28.057168010071027 23.398822611667224 3.104476949803122 0 0 0
340 1 31.17476472326633 23.39882520123459 3.1042922628049636 0 0 0
341 1 1.5587128413500895 26.09870578186881 3.1058000242709607 0 0 0
342 1 4.676137764829069 26.098666665096392 3.1056755459752767 0 0 0
344 1 7.793527319280878 26.098707014574565 3.105443775853274 0 0 0
347 1 10.910918987159912 26.098717770775306 3.1052718779624766 0 0 0
349 1 14.028333997065564 26.098700521172688 3.1051449277477206 0 0 0
351 1 17.14574104652891 26.09870607118579 3.1051113842731213 0 0 0
353 1 20.26316636180063 26.098641429285493 3.105063908438672 0 0 0
354 1 23.38080224884148 26.098690336314057 3.10483001704035 0 0 0
355 2 21.822139285943162 25.198731092385792 4.663825640328666 0 0 0
356 1 26.498375812609183 26.09868902572278 3.1045970027898795 0 0 0
357 2 24.93970083179032 25.198749258023284 4.663621695986808 0 0 0
358 1 29.615967695001256 26.09868848487713 3.104378777707257 0 0 0
359 2 28.05727413095189 25.198740594791758 4.663387025293958 0 0 0
360 2 31.174843076183993 25.198742041943333 4.66318911705727 0 0 0
363 1 3.117422600555219 28.79854600322004 3.1057565939956 0 0 0
365 1 6.2348451409602275 28.798545388320676 3.105562981090321 0 0 0
366 1 9.352215973496731 28.798582772628258 3.1053411957275583 0 0 0
368 1 12.469624946529882 28.79856685038165 3.105210525408823 0 0 0
370 1 15.58703340362419 28.79856699616308 3.105105204349083 0 0 0
372 1 18.704428179791105 28.798564916861906 3.105130189643508 0 0 0
373 2 20.263348108894817 27.89862659627512 4.663918924944304 0 0 0
374 2 23.38090000369778 27.89860518539409 4.663731956620558 0 0 0
375 1 21.822027886153087 28.798543754292186 3.1049342341462833 0 0 0
376 2 26.4984806729715 27.89859609873767 4.663505008621703 0 0 0
377 1 24.939588249397662 28.79855765184711 3.1047203085686617 0 0 0
378 2 29.61605961633391 27.898612184858383 4.663276686809428 0 0 0
379 1 28.05716801007059 28.798552286597005 3.1044769498030593 0 0 0
380 1 31.174764723265643 28.798554876166556 3.1042922628050715 0 0 0
381 1 1.5587128413496698 31.498435456798397 3.1058000242714527 0 0 0
382 1 4.676137764829842 31.498396340027153 3.105675545976763 0 0 0
384 1 7.793527319280386 31.498436689507418 3.1054437758507873 0 0 0
383 1 10.910918987160088 31.498447445707843 3.105271877962429 0 0 0
371 1 14.02833399706559 31.498430196104202 3.105144927748308 0 0 0
369 1 17.14574104652897 31.498435746116655 3.1051113842725684 0 0 0
367 1 20.2631663618023 31.49837110421464 3.105063908438876 0 0 0
362 2 21.8221392859428 30.598460767318173 4.663825640327798 0 0 0
364 1 23.380802248840382 31.49842001124569 3.1048300170402707 0 0 0
352 2 24.93970083179124 30.5984789329556 4.663621695987107 0 0 0
361 1 26.498375812607993 31.498418700651186 3.104597002789836 0 0 0
348 2 28.05727413095134 30.598470269723773 4.663387025295 0 0 0
350 1 29.615967695004095 31.498418159807848 3.104378777707291 0 0 0
346 2 31.17484307618336 30.598471716874993 4.663189117056573 0 0 0
345 1 3.1174226005567154 34.19827567815014 3.105756593997387 0 0 0
343 1 6.234845140958819 34.19827506325238 3.105562981092527 0 0 0
331 1 9.35221597349552 34.19831244756047 3.1053411957266532 0 0 0
329 1 12.469624946529349 34.19829652531314 3.105210525409318 0 0 0
327 1 15.58703340362446 34.198296671094376 3.1051052043488077 0 0 0
324 1 18.704428179791282 34.198294591793264 3.1051301896424133 0 0 0
322 2 20.263348108895386 33.29835627120671 4.663918924944793 0 0 0
312 1 21.82202788615175 34.198273429225125 3.1049342341464286 0 0 0
321 2 23.3809000036989 33.29833486032449 4.663731956621356 0 0 0
308 1 24.93958824939474 34.19828732678507 3.1047203085686634 0 0 0
310 2 26.49848067297242 33.298325773668374 4.663505008624523 0 0 0
305 1 28.05716801007112 34.198281961530874 3.104476949803058 0 0 0
306 2 29.616059616332855 33.298341859789176 4.663276686810646 0 0 0
303 1 31.174764723267778 34.19828455110083 3.1042922628049734 0 0 0
291 1 1.5587128413473115 36.8981651317305 3.105800024264715 0 0 0
289 1 4.676137764830642 36.89812601495751 3.105675545979226 0 0 0
287 1 7.7935273192796926 36.898166364438495 3.105443775852574 0 0 0
284 1 10.910918987159155 36.89817712063987 3.1052718779615223 0 0 0
282 1 14.028333997065253 36.89815987103615 3.1051449277487158 0 0 0
281 1 17.1457410465289 36.89816542104813 3.1051113842719413 0 0 0
272 1 20.26316636180224 36.89810077914627 3.1050639084392895 0 0 0
268 2 21.822139285942594 35.99819044224857 4.663825640328301 0 0 0
270 1 23.38080224884269 36.89814968617844 3.1048300170402765 0 0 0
265 2 24.93970083179066 35.998208607884514 4.663621695986016 0 0 0
266 1 26.4983758126091 36.89814837558659 3.1045970027899177 0 0 0
251 2 28.057274130952003 35.99819994465436 4.663387025294004 0 0 0
263 1 29.6159676950017 36.898147834740065 3.104378777707368 0 0 0
249 2 31.174843076184253 35.99820139180553 4.663189117055876 0 0 0
247 1 3.117422600556399 39.59800535308558 3.1057565939858085 0 0 0
244 1 6.234845140960284 39.5980047381819 3.105562981096182 0 0 0
242 1 9.352215973495452 39.59804212249105 3.1053411957263886 0 0 0
241 1 12.46962494652865 39.59802620024432 3.105210525408229 0 0 0
232 1 15.587033403624014 39.59802634602564 3.1051052043483938 0 0 0
230 1 18.704428179790458 39.598024266724536 3.1051301896427494 0 0 0
228 2 20.263348108895713 38.69808594613827 4.663918924944724 0 0 0
225 1 21.82202788615337 39.598003104153555 3.104934234146115 0 0 0
226 2 23.380900003697676 38.69806453525679 4.663731956620132 0 0 0
211 1 24.939588249398145 39.59801700171109 3.104720308568879 0 0 0
223 2 26.498480672971937 38.69805544860028 4.663505008621178 0 0 0
207 1 28.057168010070022 39.598011636458715 3.1044769498028906 0 0 0
209 2 29.616059616333867 38.6980715347214 4.663276686809159 0 0 0
204 1 31.174764723264214 39.59801422603119 3.104292262804999 0 0 0
202 1 1.5587128413489424 42.29789480666283 3.1058000242660024 0 0 0
201 1 4.676137764827389 42.297855689888664 3.1056755459742966 0 0 0
192 1 7.793527319280197 42.29789603936929 3.1054437758555395 0 0 0
190 1 10.910918987158752 42.29790679557032 3.1052718779609436 0 0 0
188 1 14.028333997064648 42.297889545967344 3.1051449277492864 0 0 0
186 1 17.14574104652888 42.29789509597949 3.1051113842730396 0 0 0
185 1 20.26316636180369 42.297830454075694 3.105063908439141 0 0 0
171 2 21.822139285941834 41.397920117181556 4.663825640328632 0 0 0
183 1 23.38080224884338 42.29787936110993 3.104830017040349 0 0 0
167 2 24.939700831790557 41.3979382828179 4.66362169598691 0 0 0
169 1 26.498375812610767 42.297878050513 3.104597002789886 0 0 0
162 2 28.057274130951797 41.397929619587536 4.663387025293673 0 0 0
164 1 29.61596769500085 42.29787750967082 3.1043787777074905 0 0 0
161 2 31.174843076184004 41.397931066737286 4.663189117056235 0 0 0
385 3 1.5586809875069236 44.09778312111199 1.546812208580918 0 0 0
386 3 4.676037540836613 44.09774535889631 1.5466993239845288 0 0 0
387 3 7.793427507439438 44.097781357084614 1.5464489992903514 0 0 0
388 3 10.910846690299373 44.09779716994192 1.5462819888341657 0 0 0
389 3 14.028282913391834 44.097788866132795 1.546148144460799 0 0 0
390 3 17.145736001320962 44.09777136711286 1.5461247882663423 0 0 0
391 3 20.26313810558869 44.097759230520715 1.5461534673703827 0 0 0
392 3 23.38070574839499 44.097793047847624 1.5459207496937253 0 0 0
393 3 26.49826031013911 44.09780045310907 1.5456905774641 0 0 0
394 3 29.615887054018216 44.09779517058885 1.5454718070895923 0 0 0
395 3 3.117360637405093 46.79762133422362 1.5467789411179385 0 0 0
396 3 6.234723860477967 46.797622415481385 1.5465734585844693 0 0 0
397 3 9.352136809402188 46.79766415796503 1.5463602168234631 0 0 0
398 3 12.469557181876418 46.79764761507515 1.546207850109114 0 0 0
399 3 15.587029293238375 46.797658092570344 1.5461307706482708 0 0 0
400 3 18.70441968432206 46.79762133317892 1.5461205155015991 0 0 0
401 3 21.821892537682388 46.797652982682685 1.5460458931438557 0 0 0
402 3 24.93947504885764 46.79765731270607 1.545808398737229 0 0 0
403 3 28.057071194520077 46.79766968701561 1.5455744370916724 0 0 0
404 3 31.174683768662582 46.79766120535919 1.545385729315718 0 0 0
405 3 1.5586809875050485 49.49751279604328 1.5468122085759108 0 0 0
406 3 4.676037540835237 49.49747503382751 1.546699323986227 0 0 0
407 3 7.793427507438405 49.49751103201609 1.5464489992893498 0 0 0
408 3 10.910846690299577 49.49752684487252 1.5462819888338617 0 0 0
409 3 14.028282913392477 49.49751854106425 1.5461481444613001 0 0 0
410 3 17.145736001321882 49.49750104204407 1.5461247882661673 0 0 0
411 3 20.26313810558797 49.49748890545024 1.546153467370125 0 0 0
412 3 23.38070574839489 49.497522722781085 1.5459207496952818 0 0 0
413 3 26.498260310140186 49.49753012803931 1.5456905774632554 0 0 0
414 3 29.61588705401798 49.49752484551962 1.5454718070879472 0 0 0
415 3 3.117360637406585 52.197351009154616 1.546778941115089 0 0 0
416 3 6.234723860476277 52.197352090413986 1.546573458589209 0 0 0
417 3 9.35213680940241 52.19739383289666 1.546360216823085 0 0 0
418 3 12.469557181877583 52.197377290006266 1.546207850108684 0 0 0
419 3 15.58702929323896 52.19738776750231 1.5461307706473784 0 0 0
420 3 18.704419684321742 52.19735100811059 1.5461205155015694 0 0 0
421 3 21.82189253767821 52.19738265761428 1.5460458931426706 0 0 0
422 3 24.93947504885622 52.19738698763729 1.5458083987382287 0 0 0
423 3 28.057071194519775 52.19739936194584 1.5455744370929771 0 0 0
424 3 31.17468376866284 52.19739088028942 1.5453857293172255 0 0 0
425 3 1.558680987510036 54.897242470972046 1.5468122085733116 0 0 0
426 3 4.676037540837291 54.89720470875689 1.5466993239850408 0 0 0
427 3 7.79342750744009 54.897240706948146 1.5464489992904429 0 0 0
428 3 10.910846690300076 54.89725651980484 1.5462819888345245 0 0 0
429 3 14.028282913391834 54.897248215995624 1.5461481444612923 0 0 0
430 3 17.145736001321655 54.8972307169755 1.5461247882661235 0 0 0
431 3 20.263138105588556 54.897218580383125 1.5461534673700315 0 0 0
432 3 23.38070574839311 54.89725239770936 1.5459207496933756 0 0 0
433 3 26.498260310138146 54.89725980297201 1.545690577465738 0 0 0
434 3 29.615887054018735 54.897254520452584 1.5454718070921571 0 0 0
435 3 3.117360637402374 57.59708068408673 1.5467789411166923 0 0 0
436 3 6.234723860476976 57.597081765346076 1.5465734585887656 0 0 0
437 3 9.35213680940336 57.59712350782894 1.546360216822793 0 0 0
438 3 12.469557181876171 57.59710696493771 1.546207850108189 0 0 0
439 3 15.58702929323896 57.59711744243329 1.546130770646557 0 0 0
440 3 18.704419684322218 57.597080683041966 1.5461205155018494 0 0 0
441 3 21.821892537681176 57.597112332545485 1.5460458931440868 0 0 0
442 3 24.93947504885673 57.59711666256827 1.5458083987375162 0 0 0