LAMMPS data file via write_data, version 2 Aug 2023, timestep = 349, units = metal

47216 atoms
3 atom types

0 1558.7698189594623 xlo xhi
0 86.39578759739256 ylo yhi
0 50 zlo zhi
0 0 0 xy xz yz

Masses

1 95.94
2 32.065
3 32.065

Atoms # atomic

1 3 1.558768991236382 0.8999561567892173 1.5454394606807194 0 0 0
2 3 4.676308629156636 0.8999561567893196 1.545439460680447 0 0 0
3 3 7.793848267075305 0.8999561567893355 1.5454394606804889 0 0 0
4 3 10.911387904994163 0.8999561567893394 1.545439460680503 0 0 0
5 3 14.02892754291308 0.8999561567893394 1.545439460680505 0 0 0
6 3 17.14646718083202 0.8999561567893282 1.5454394606805357 0 0 0
7 3 20.264006818750968 0.8999561567893205 1.5454394606805375 0 0 0
8 3 23.381546456669884 0.8999561567893274 1.5454394606805082 0 0 0
9 3 26.499086094588804 0.899956156789315 1.545439460680533 0 0 0
10 3 29.616625732507714 0.8999561567893359 1.5454394606805237 0 0 0
11 3 32.734165370426666 0.8999561567893581 1.5454394606805104 0 0 0
12 3 35.851705008345604 0.8999561567893166 1.5454394606805086 0 0 0
13 3 38.96924464626449 0.8999561567893307 1.545439460680532 0 0 0
14 3 42.08678428418346 0.8999561567893484 1.5454394606805069 0 0 0
15 3 3.1175388101967343 3.5998245192078966 1.5454394606806447 0 0 0
16 3 6.235078448115994 3.599824519207817 1.5454394606805077 0 0 0
17 3 9.352618086034692 3.5998245192078104 1.5454394606805208 0 0 0
18 3 12.470157723953605 3.599824519207817 1.5454394606805226 0 0 0
19 3 15.587697361872536 3.599824519207831 1.5454394606805255 0 0 0
20 3 18.7052369997915 3.599824519207817 1.5454394606805097 0 0 0
21 3 21.822776637710415 3.5998245192078246 1.5454394606805208 0 0 0
22 3 24.940316275629307 3.599824519207829 1.5454394606805255 0 0 0
23 3 28.057855913548273 3.599824519207829 1.5454394606805208 0 0 0
24 3 31.175395551467204 3.5998245192078246 1.545439460680523 0 0 0
25 3 34.292935189386114 3.599824519207829 1.5454394606805395 0 0 0
26 3 37.41047482730504 3.5998245192078127 1.5454394606804966 0 0 0
27 3 40.528014465223954 3.599824519207819 1.545439460680528 0 0 0
28 3 1.5587689912363878 6.2996928816261875 1.5454394606807436 0 0 0
29 3 4.6763086291566305 6.299692881626297 1.545439460680451 0 0 0
30 3 7.793848267075315 6.299692881626288 1.5454394606805009 0 0 0
31 3 10.911387904994156 6.299692881626321 1.5454394606805226 0 0 0
32 3 14.028927542913099 6.299692881626312 1.5454394606805135 0 0 0
33 3 17.146467180832058 6.299692881626324 1.5454394606805304 0 0 0
34 3 20.264006818750968 6.299692881626329 1.5454394606805208 0 0 0
35 3 23.381546456669884 6.299692881626305 1.5454394606805097 0 0 0
36 3 26.499086094588826 6.299692881626325 1.5454394606805235 0 0 0
37 3 29.616625732507725 6.299692881626317 1.5454394606805253 0 0 0
38 3 32.734165370426645 6.299692881626317 1.545439460680518 0 0 0
39 3 35.85170500834558 6.299692881626324 1.5454394606805102 0 0 0
40 3 38.96924464626449 6.299692881626329 1.54543946068053 0 0 0
41 3 42.08678428418339 6.299692881626321 1.5454394606805195 0 0 0
42 3 3.117538810196742 8.999561244044898 1.5454394606806485 0 0 0
43 3 6.235078448116001 8.999561244044829 1.5454394606805115 0 0 0
44 3 9.352618086034681 8.999561244044829 1.5454394606805193 0 0 0
45 3 12.4701577239536 8.999561244044834 1.5454394606805257 0 0 0
46 3 15.58769736187252 8.999561244044854 1.545439460680531 0 0 0
47 3 18.705236999791488 8.999561244044838 1.5454394606805164 0 0 0
48 3 21.82277663771039 8.999561244044845 1.5454394606805135 0 0 0
49 3 24.940316275629307 8.999561244044838 1.5454394606805202 0 0 0
50 3 28.057855913548273 8.999561244044834 1.5454394606805175 0 0 0
51 3 31.175395551467194 8.999561244044848 1.5454394606805286 0 0 0
52 3 34.292935189386085 8.99956124404485 1.5454394606805286 0 0 0
53 3 37.410474827304995 8.999561244044838 1.5454394606804998 0 0 0
54 3 40.528014465223954 8.999561244044829 1.5454394606805189 0 0 0
55 3 1.558768991236402 11.69942960646321 1.5454394606807405 0 0 0
56 3 4.676308629156628 11.699429606463331 1.5454394606804542 0 0 0
57 3 7.793848267075315 11.699429606463317 1.5454394606805035 0 0 0
58 3 10.91138790499415 11.699429606463344 1.5454394606805268 0 0 0
59 3 14.028927542913085 11.699429606463331 1.5454394606805275 0 0 0
60 3 17.146467180832037 11.699429606463344 1.545439460680529 0 0 0
61 3 20.264006818750968 11.699429606463365 1.5454394606805255 0 0 0
62 3 23.381546456669884 11.699429606463324 1.5454394606805069 0 0 0
63 3 26.499086094588826 11.699429606463344 1.5454394606805255 0 0 0
64 3 29.616625732507725 11.699429606463344 1.545439460680529 0 0 0
65 3 32.734165370426645 11.699429606463331 1.5454394606805117 0 0 0
66 3 35.85170500834558 11.699429606463351 1.5454394606805257 0 0 0
67 3 38.96924464626449 11.699429606463351 1.545439460680532 0 0 0
68 3 42.08678428418346 11.699429606463344 1.545439460680526 0 0 0
69 3 3.1175388101967316 14.399297968881942 1.5454394606806439 0 0 0
70 3 6.235078448115983 14.39929796888186 1.5454394606805126 0 0 0
71 3 9.352618086034687 14.399297968881868 1.5454394606805197 0 0 0
72 3 12.4701577239536 14.399297968881868 1.5454394606805237 0 0 0
73 3 15.58769736187252 14.399297968881868 1.5454394606805182 0 0 0
74 3 18.705236999791488 14.399297968881868 1.5454394606805244 0 0 0
75 3 21.82277663771038 14.399297968881877 1.5454394606805173 0 0 0
76 3 24.940316275629307 14.39929796888186 1.5454394606805264 0 0 0
77 3 28.057855913548273 14.399297968881854 1.5454394606805253 0 0 0
78 3 31.175395551467204 14.399297968881868 1.5454394606805273 0 0 0
79 3 34.292935189386085 14.399297968881868 1.5454394606805366 0 0 0
80 3 37.410474827305066 14.399297968881868 1.5454394606804969 0 0 0
81 3 40.528014465223954 14.39929796888186 1.5454394606805326 0 0 0
82 3 1.558768991236393 17.09916633130023 1.5454394606807382 0 0 0
83 3 4.676308629156622 17.09916633130035 1.5454394606804478 0 0 0
84 3 7.793848267075315 17.099166331300363 1.5454394606804924 0 0 0
85 3 10.911387904994163 17.0991663313004 1.5454394606805129 0 0 0
86 3 14.028927542913085 17.0991663313004 1.5454394606805157 0 0 0
87 3 17.146467180832037 17.0991663313004 1.5454394606805204 0 0 0
88 3 20.264006818750968 17.0991663313004 1.5454394606805149 0 0 0
89 3 23.381546456669884 17.09916633130037 1.545439460680503 0 0 0
90 3 26.499086094588826 17.0991663313004 1.5454394606805215 0 0 0
91 3 29.616625732507714 17.0991663313004 1.5454394606805133 0 0 0
92 3 32.734165370426645 17.099166331300385 1.545439460680505 0 0 0
93 3 35.851705008345604 17.099166331300406 1.5454394606805306 0 0 0
94 3 38.96924464626449 17.099166331300378 1.5454394606805226 0 0 0
95 3 42.08678428418346 17.099166331300385 1.545439460680503 0 0 0
96 3 3.117538810196737 19.799034693719005 1.5454394606806403 0 0 0
97 3 6.235078448115994 19.799034693718923 1.5454394606805222 0 0 0
98 3 9.352618086034687 19.7990346937189 1.5454394606805302 0 0 0
99 3 12.4701577239536 19.799034693718916 1.5454394606805364 0 0 0
100 3 15.587697361872515 19.79903469371891 1.5454394606805277 0 0 0
101 3 18.705236999791488 19.799034693718944 1.5454394606805273 0 0 0
102 3 21.82277663771039 19.79903469371891 1.5454394606805175 0 0 0
103 3 24.940316275629307 19.79903469371893 1.5454394606805326 0 0 0
104 3 28.057855913548273 19.7990346937189 1.545439460680532 0 0 0
105 3 31.175395551467194 19.7990346937189 1.5454394606805324 0 0 0
106 3 34.292935189386114 19.79903469371893 1.5454394606805513 0 0 0
107 3 37.410474827305066 19.799034693718895 1.5454394606804938 0 0 0
108 3 40.528014465223954 19.799034693718916 1.5454394606805268 0 0 0
109 3 1.5587689912364047 22.498903056137294 1.5454394606807385 0 0 0
110 3 4.676308629156624 22.49890305613739 1.54543946068045 0 0 0
111 3 7.793848267075313 22.49890305613739 1.5454394606805015 0 0 0
112 3 10.911387904994156 22.498903056137433 1.54543946068052 0 0 0
113 3 14.028927542913099 22.49890305613744 1.5454394606805197 0 0 0
114 3 17.14646718083202 22.49890305613744 1.545439460680522 0 0 0
115 3 20.264006818750968 22.49890305613742 1.5454394606805237 0 0 0
116 3 23.381546456669874 22.49890305613742 1.545439460680516 0 0 0
117 3 26.499086094588826 22.498903056137426 1.5454394606805315 0 0 0
118 3 29.616625732507746 22.49890305613744 1.5454394606805109 0 0 0
119 3 32.734165370426666 22.498903056137433 1.545439460680522 0 0 0
120 3 35.85170500834558 22.498903056137415 1.5454394606805235 0 0 0
121 3 38.96924464626449 22.49890305613747 1.5454394606805257 0 0 0
122 3 42.08678428418346 22.498903056137426 1.545439460680516 0 0 0
123 3 3.117538810196737 25.19877141855601 1.5454394606806305 0 0 0
124 3 6.235078448115983 25.198771418555957 1.545439460680509 0 0 0
125 3 9.352618086034681 25.198771418555957 1.5454394606805215 0 0 0
126 3 12.4701577239536 25.198771418555957 1.545439460680529 0 0 0
127 3 15.587697361872525 25.19877141855597 1.545439460680528 0 0 0
128 3 18.705236999791488 25.198771418555957 1.545439460680523 0 0 0
129 3 21.822776637710415 25.198771418555957 1.5454394606805213 0 0 0
130 3 24.940316275629307 25.19877141855597 1.5454394606805346 0 0 0
131 3 28.057855913548273 25.198771418555957 1.5454394606805255 0 0 0
132 3 31.175395551467194 25.198771418555957 1.545439460680538 0 0 0
133 3 34.292935189386114 25.198771418555946 1.5454394606805422 0 0 0
134 3 37.410474827305066 25.19877141855597 1.5454394606805046 0 0 0
135 3 40.52801446522393 25.19877141855593 1.5454394606805197 0 0 0
136 3 1.5587689912363833 27.8986397809743 1.5454394606807396 0 0 0
137 3 4.6763086291566305 27.89863978097443 1.5454394606804442 0 0 0
138 3 7.793848267075313 27.89863978097443 1.5454394606804902 0 0 0
139 3 10.91138790499415 27.89863978097449 1.5454394606805124 0 0 0
140 3 14.02892754291309 27.898639780974477 1.5454394606805222 0 0 0
141 3 17.14646718083202 27.898639780974506 1.5454394606805273 0 0 0
142 3 20.264006818750943 27.898639780974477 1.545439460680516 0 0 0
143 3 23.381546456669874 27.898639780974477 1.5454394606805084 0 0 0
144 3 26.499086094588804 27.898639780974506 1.5454394606805284 0 0 0
145 3 29.616625732507714 27.898639780974506 1.5454394606805253 0 0 0
146 3 32.734165370426666 27.89863978097445 1.5454394606805257 0 0 0
147 3 35.851705008345604 27.89863978097445 1.5454394606805173 0 0 0
148 3 38.96924464626449 27.898639780974506 1.5454394606805244 0 0 0
149 3 42.08678428418346 27.898639780974477 1.5454394606805153 0 0 0
150 3 3.117538810196742 30.59850814339302 1.5454394606806452 0 0 0
151 3 6.235078448115994 30.598508143393 1.5454394606805102 0 0 0
152 3 9.352618086034687 30.59850814339298 1.5454394606805255 0 0 0
153 3 12.470157723953594 30.598508143393016 1.5454394606805255 0 0 0
154 3 15.58769736187252 30.59850814339303 1.5454394606805157 0 0 0
155 3 18.705236999791488 30.59850814339303 1.5454394606805235 0 0 0
156 3 21.822776637710415 30.598508143393 1.5454394606805104 0 0 0
157 3 24.940316275629307 30.59850814339303 1.545439460680516 0 0 0
158 3 28.057855913548273 30.598508143393016 1.5454394606805157 0 0 0
159 3 31.175395551467204 30.59850814339303 1.5454394606805149 0 0 0
160 3 34.292935189386114 30.59850814339303 1.5454394606805313 0 0 0
161 3 37.410474827305066 30.598508143393 1.5454394606804973 0 0 0
162 3 40.528014465223954 30.59850814339303 1.5454394606805182 0 0 0
163 3 1.558768991236387 33.298376505811355 1.5454394606807367 0 0 0
164 3 4.676308629156628 33.29837650581148 1.545439460680459 0 0 0
165 3 7.793848267075321 33.29837650581148 1.545439460680503 0 0 0
166 3 10.91138790499414 33.298376505811504 1.545439460680519 0 0 0
167 3 14.028927542913085 33.298376505811504 1.5454394606805157 0 0 0
168 3 17.146467180832037 33.298376505811504 1.5454394606805195 0 0 0
169 3 20.264006818750968 33.298376505811504 1.5454394606805277 0 0 0
170 3 23.381546456669884 33.29837650581148 1.5454394606804993 0 0 0
171 3 26.499086094588804 33.298376505811504 1.5454394606805215 0 0 0
172 3 29.616625732507714 33.298376505811504 1.5454394606805204 0 0 0
173 3 32.734165370426666 33.298376505811504 1.545439460680524 0 0 0
174 3 35.85170500834558 33.29837650581149 1.5454394606805104 0 0 0
175 3 38.96924464626449 33.29837650581152 1.5454394606805253 0 0 0
176 3 42.08678428418339 33.29837650581149 1.5454394606805268 0 0 0
177 3 3.1175388101969372 35.99824486823007 1.5454394606804995 0 0 0
178 3 6.235078448116022 35.99824486823004 1.5454394606805 0 0 0
179 3 9.352618086034692 35.99824486823004 1.5454394606805264 0 0 0
180 3 12.47015772395361 35.99824486823005 1.5454394606805424 0 0 0
181 3 15.58769736187252 35.99824486823007 1.545439460680535 0 0 0
182 3 18.705236999791488 35.99824486823005 1.5454394606805333 0 0 0
183 3 21.82277663771039 35.99824486823004 1.545439460680527 0 0 0
184 3 24.940316275629307 35.99824486823004 1.5454394606805546 0 0 0
185 3 28.057855913548273 35.99824486823005 1.5454394606805355 0 0 0
186 3 31.175395551467204 35.99824486823004 1.5454394606805366 0 0 0
187 3 34.292935189386114 35.99824486823004 1.5454394606805602 0 0 0
188 3 37.41047482730504 35.998244868230024 1.5454394606805082 0 0 0
189 3 40.528014465223954 35.99824486823004 1.5454394606805415 0 0 0
190 3 1.558768991236453 38.6981132306485 1.545439460680636 0 0 0
191 3 4.676308629156624 38.69811323064854 1.5454394606804407 0 0 0
192 3 7.79384826707531 38.6981132306485 1.5454394606805097 0 0 0
193 3 10.91138790499415 38.69811323064852 1.545439460680516 0 0 0
194 3 14.028927542913085 38.69811323064856 1.5454394606805175 0 0 0
195 3 17.146467180832037 38.69811323064856 1.5454394606805264 0 0 0
196 3 20.264006818750968 38.69811323064856 1.5454394606805142 0 0 0
197 3 23.381546456669874 38.69811323064852 1.5454394606805097 0 0 0
198 3 26.499086094588804 38.69811323064852 1.5454394606805235 0 0 0
199 3 29.616625732507714 38.69811323064852 1.5454394606805175 0 0 0
200 3 32.734165370426666 38.69811323064852 1.5454394606805244 0 0 0
201 3 35.85170500834558 38.69811323064856 1.5454394606805173 0 0 0
202 3 38.96924464626449 38.69811323064852 1.5454394606805255 0 0 0
203 3 42.08678428418339 38.69811323064854 1.5454394606805153 0 0 0
204 3 3.1175388101967236 41.39798159306714 1.545439460680635 0 0 0
205 3 6.235078448115986 41.39798159306703 1.5454394606804935 0 0 0
206 3 9.352618086034681 41.39798159306707 1.5454394606805042 0 0 0
207 3 12.4701577239536 41.39798159306709 1.5454394606805109 0 0 0
208 3 15.587697361872557 41.397981593067044 1.5454394606805062 0 0 0
209 3 18.705236999791488 41.39798159306703 1.545439460680511 0 0 0
210 3 21.822776637710415 41.39798159306709 1.5454394606805064 0 0 0
211 3 24.940316275629307 41.39798159306706 1.5454394606805046 0 0 0
212 3 28.057855913548273 41.39798159306709 1.545439460680498 0 0 0
213 3 31.175395551467194 41.397981593067044 1.5454394606805149 0 0 0
214 3 34.292935189386085 41.39798159306703 1.5454394606805182 0 0 0
215 3 37.410474827305066 41.397981593067044 1.5454394606804902 0 0 0
216 3 40.528014465223954 41.397981593067044 1.545439460680516 0 0 0
217 2 1.5587689912363833 0.8999561567892104 4.663253872652605 0 0 0
218 2 4.676308629156628 0.8999561567893196 4.663253872652879 0 0 0
219 1 3.1175388101967005 1.7999122524180586 3.1043466666666633 0 0 0
220 2 7.793848267075302 0.8999561567893376 4.663253872652846 0 0 0
221 1 6.235078448115991 1.7999122524184312 3.1043466666666664 0 0 0
222 1 9.352618086034697 1.799912252418367 3.10434666666667 0 0 0
223 2 10.911387904994156 0.8999561567893406 4.6632538726528345 0 0 0
224 1 12.470157723953616 1.799912252418367 3.1043466666666677 0 0 0
225 2 14.02892754291308 0.8999561567893402 4.66325387265283 0 0 0
226 1 15.587697361872552 1.7999122524183695 3.1043466666666664 0 0 0
227 2 17.146467180832037 0.8999561567893269 4.663253872652798 0 0 0
228 1 18.705236999791513 1.7999122524183842 3.1043466666666695 0 0 0
229 2 20.264006818750968 0.8999561567893171 4.663253872652803 0 0 0
230 2 23.381546456669884 0.8999561567893252 4.663253872652829 0 0 0
231 1 21.822776637710426 1.799912252418367 3.1043466666666695 0 0 0
232 2 26.499086094588804 0.8999561567893154 4.663253872652803 0 0 0
233 1 24.940316275629318 1.799912252418379 3.1043466666666677 0 0 0
234 2 29.616625732507714 0.8999561567893337 4.663253872652814 0 0 0
235 1 28.057855913548245 1.7999122524183824 3.1043466666666695 0 0 0
236 1 31.175395551467204 1.7999122524183773 3.104346666666668 0 0 0
237 2 32.734165370426666 0.8999561567893544 4.663253872652825 0 0 0
238 1 34.29293518938618 1.7999122524183653 3.104346666666669 0 0 0
239 2 35.851705008345604 0.8999561567893175 4.6632538726528265 0 0 0
240 1 37.41047482730509 1.79991225241838 3.1043466666666677 0 0 0
241 2 38.96924464626449 0.8999561567893312 4.6632538726528034 0 0 0
242 1 40.5280144652239 1.799912252418374 3.1043466666666664 0 0 0
243 2 42.08678428418346 0.8999561567893484 4.663253872652829 0 0 0
244 1 1.558768991236655 4.499780614836698 3.1043466666666717 0 0 0
245 1 4.676308629156483 4.4997806148368715 3.104346666666667 0 0 0
246 2 3.1175388101967356 3.599824519207891 4.663253872652689 0 0 0
247 1 7.793848267075341 4.499780614836899 3.1043466666666673 0 0 0
248 2 6.235078448115994 3.599824519207817 4.663253872652827 0 0 0
249 2 9.352618086034692 3.5998245192078104 4.663253872652817 0 0 0
250 1 10.91138790499414 4.499780614836853 3.1043466666666704 0 0 0
251 2 12.470157723953605 3.599824519207817 4.663253872652814 0 0 0
252 1 14.02892754291308 4.499780614836857 3.1043466666666686 0 0 0
253 2 15.587697361872557 3.599824519207829 4.6632538726528105 0 0 0
254 1 17.14646718083201 4.499780614836853 3.1043466666666677 0 0 0
255 2 18.7052369997915 3.599824519207817 4.663253872652827 0 0 0
256 1 20.264006818750968 4.499780614836864 3.104346666666669 0 0 0
257 1 23.381546456669863 4.499780614836868 3.1043466666666695 0 0 0
258 2 21.822776637710415 3.5998245192078224 4.663253872652815 0 0 0
259 1 26.499086094588794 4.4997806148368555 3.1043466666666677 0 0 0
260 2 24.940316275629307 3.599824519207829 4.663253872652809 0 0 0
261 1 29.616625732507725 4.4997806148368555 3.1043466666666686 0 0 0
262 2 28.057855913548273 3.599824519207829 4.663253872652818 0 0 0
263 2 31.175395551467204 3.5998245192078224 4.663253872652812 0 0 0
264 1 32.734165370426666 4.49978061483687 3.104346666666668 0 0 0
265 2 34.292935189386114 3.599824519207829 4.6632538726528 0 0 0
266 1 35.85170500834556 4.49978061483687 3.1043466666666673 0 0 0
267 2 37.41047482730504 3.5998245192078127 4.663253872652842 0 0 0
268 1 38.96924464626444 4.4997806148368475 3.104346666666669 0 0 0
269 2 40.528014465223954 3.5998245192078207 4.663253872652806 0 0 0
270 1 42.08678428418348 4.4997806148368715 3.1043466666666673 0 0 0
271 2 1.5587689912364011 6.299692881626173 4.663253872652599 0 0 0
272 2 4.676308629156628 6.299692881626293 4.663253872652885 0 0 0
273 1 3.117538810196716 7.199648977255057 3.104346666666669 0 0 0
274 2 7.793848267075313 6.299692881626288 4.663253872652835 0 0 0
275 1 6.235078448116001 7.199648977255424 3.1043466666666664 0 0 0
276 1 9.352618086034704 7.199648977255376 3.1043466666666704 0 0 0
277 2 10.911387904994156 6.299692881626317 4.663253872652816 0 0 0
278 1 12.470157723953635 7.199648977255365 3.104346666666669 0 0 0
279 2 14.028927542913099 6.299692881626312 4.663253872652824 0 0 0
280 1 15.587697361872568 7.199648977255365 3.104346666666671 0 0 0
281 2 17.146467180832047 6.299692881626325 4.663253872652808 0 0 0
282 1 18.7052369997915 7.199648977255389 3.104346666666669 0 0 0
283 2 20.264006818750968 6.299692881626325 4.663253872652813 0 0 0
284 2 23.381546456669874 6.299692881626312 4.663253872652825 0 0 0
285 1 21.822776637710415 7.199648977255376 3.1043466666666646 0 0 0
286 2 26.499086094588804 6.299692881626324 4.663253872652813 0 0 0
287 1 24.94031627562933 7.199648977255369 3.1043466666666677 0 0 0
288 2 29.616625732507725 6.299692881626321 4.6632538726528105 0 0 0
289 1 28.057855913548256 7.199648977255369 3.10434666666667 0 0 0
290 1 31.175395551467194 7.199648977255383 3.104346666666668 0 0 0
291 2 32.734165370426645 6.299692881626317 4.663253872652817 0 0 0
292 1 34.292935189386135 7.199648977255362 3.1043466666666677 0 0 0
293 2 35.85170500834558 6.299692881626317 4.663253872652826 0 0 0
294 1 37.41047482730509 7.199648977255393 3.1043466666666677 0 0 0
295 2 38.96924464626449 6.299692881626332 4.663253872652805 0 0 0
296 1 40.5280144652239 7.199648977255369 3.1043466666666686 0 0 0
297 2 42.08678428418339 6.299692881626321 4.663253872652816 0 0 0
298 1 1.5587689912366647 9.899517339673721 3.1043466666666673 0 0 0
299 1 4.6763086291564715 9.899517339673906 3.1043466666666664 0 0 0
300 2 3.1175388101967445 8.999561244044898 4.663253872652693 0 0 0
301 1 7.79384826707533 9.899517339673924 3.1043466666666713 0 0 0
302 2 6.235078448115988 8.999561244044829 4.663253872652825 0 0 0
303 2 9.352618086034681 8.999561244044834 4.663253872652823 0 0 0
304 1 10.91138790499414 9.899517339673872 3.104346666666671 0 0 0
305 2 12.4701577239536 8.999561244044838 4.663253872652812 0 0 0
306 1 14.028927542913069 9.899517339673887 3.104346666666671 0 0 0
307 2 15.58769736187252 8.999561244044854 4.663253872652816 0 0 0
308 1 17.146467180832 9.899517339673887 3.1043466666666744 0 0 0
309 2 18.705236999791467 8.999561244044834 4.663253872652826 0 0 0
310 1 20.264006818750968 9.89951733967389 3.104346666666673 0 0 0
311 1 23.381546456669838 9.899517339673897 3.1043466666666646 0 0 0
312 2 21.82277663771039 8.999561244044848 4.663253872652813 0 0 0
313 1 26.499086094588815 9.89951733967388 3.1043466666666633 0 0 0
314 2 24.940316275629307 8.999561244044838 4.663253872652812 0 0 0
315 1 29.616625732507735 9.899517339673865 3.1043466666666717 0 0 0
316 2 28.057855913548273 8.999561244044834 4.663253872652819 0 0 0
317 2 31.175395551467194 8.999561244044848 4.663253872652808 0 0 0
318 1 32.734165370426666 9.899517339673887 3.1043466666666664 0 0 0
319 2 34.292935189386085 8.99956124404485 4.663253872652808 0 0 0
320 1 35.85170500834553 9.899517339673894 3.104346666666668 0 0 0
321 2 37.41047482730504 8.999561244044838 4.6632538726528345 0 0 0
322 1 38.96924464626449 9.899517339673872 3.104346666666664 0 0 0
323 2 40.528014465223954 8.999561244044834 4.663253872652812 0 0 0
324 1 42.08678428418348 9.899517339673887 3.1043466666666664 0 0 0
325 2 1.5587689912364073 11.69942960646321 4.6632538726526 0 0 0
326 2 4.676308629156628 11.699429606463317 4.663253872652878 0 0 0
327 1 3.1175388101967147 12.599385702092087 3.104346666666667 0 0 0
328 2 7.793848267075313 11.699429606463317 4.663253872652833 0 0 0
329 1 6.235078448115994 12.599385702092462 3.104346666666667 0 0 0
330 1 9.352618086034704 12.599385702092407 3.1043466666666686 0 0 0
331 2 10.91138790499415 11.699429606463344 4.663253872652814 0 0 0
332 1 12.470157723953626 12.599385702092393 3.104346666666671 0 0 0
333 2 14.028927542913085 11.699429606463331 4.663253872652812 0 0 0
334 1 15.587697361872557 12.599385702092414 3.1043466666666713 0 0 0
335 2 17.146467180832037 11.699429606463355 4.663253872652814 0 0 0
336 1 18.7052369997915 12.599385702092421 3.1043466666666664 0 0 0
337 2 20.264006818750968 11.699429606463365 4.663253872652806 0 0 0
338 2 23.381546456669884 11.699429606463324 4.663253872652824 0 0 0
339 1 21.822776637710415 12.599385702092414 3.1043466666666664 0 0 0
340 2 26.499086094588826 11.699429606463344 4.663253872652809 0 0 0
341 1 24.940316275629318 12.599385702092382 3.1043466666666664 0 0 0
342 2 29.616625732507725 11.699429606463344 4.663253872652809 0 0 0
343 1 28.057855913548273 12.599385702092407 3.104346666666671 0 0 0
344 1 31.175395551467194 12.599385702092393 3.1043466666666695 0 0 0
345 2 32.734165370426645 11.699429606463331 4.663253872652822 0 0 0
346 1 34.292935189386135 12.599385702092393 3.1043466666666664 0 0 0
347 2 35.85170500834558 11.699429606463344 4.663253872652801 0 0 0
348 1 37.410474827305066 12.599385702092421 3.104346666666669 0 0 0
349 2 38.96924464626449 11.699429606463351 4.663253872652807 0 0 0
350 1 40.52801446522393 12.599385702092382 3.1043466666666775 0 0 0
351 2 42.08678428418346 11.699429606463331 4.6632538726528265 0 0 0
352 1 1.5587689912366602 15.299254064510759 3.1043466666666717 0 0 0
353 1 4.676308629156461 15.299254064510945 3.1043466666666664 0 0 0
354 2 3.1175388101967303 14.399297968881935 4.6632538726526915 0 0 0
355 1 7.793848267075325 15.29925406451095 3.1043466666666686 0 0 0
356 2 6.235078448115983 14.39929796888186 4.663253872652824 0 0 0
357 2 9.352618086034687 14.399297968881868 4.663253872652818 0 0 0
358 1 10.91138790499414 15.299254064510917 3.1043466666666677 0 0 0
359 2 12.47015772395361 14.399297968881868 4.663253872652813 0 0 0
360 1 14.028927542913085 15.29925406451095 3.104346666666668 0 0 0
361 2 15.58769736187252 14.399297968881868 4.663253872652818 0 0 0
362 1 17.14646718083201 15.29925406451091 3.1043466666666664 0 0 0
363 2 18.705236999791488 14.399297968881868 4.663253872652808 0 0 0
364 1 20.264006818750968 15.299254064510931 3.104346666666669 0 0 0
365 1 23.381546456669838 15.299254064510938 3.1043466666666677 0 0 0
366 2 21.82277663771039 14.399297968881877 4.663253872652818 0 0 0
367 1 26.499086094588815 15.299254064510917 3.1043466666666695 0 0 0
368 2 24.940316275629307 14.39929796888186 4.663253872652816 0 0 0
369 1 29.616625732507735 15.299254064510917 3.104346666666668 0 0 0
370 2 28.057855913548273 14.39929796888186 4.663253872652815 0 0 0
371 2 31.175395551467204 14.399297968881868 4.6632538726528105 0 0 0
372 1 32.734165370426645 15.29925406451095 3.1043466666666677 0 0 0
373 2 34.292935189386085 14.399297968881868 4.663253872652801 0 0 0
374 1 35.85170500834556 15.299254064510938 3.1043466666666717 0 0 0
375 2 37.410474827305066 14.399297968881854 4.663253872652834 0 0 0
376 1 38.96924464626449 15.29925406451089 3.1043466666666686 0 0 0
377 2 40.528014465223954 14.39929796888186 4.663253872652816 0 0 0
378 1 42.08678428418348 15.299254064510958 3.1043466666666695 0 0 0
379 2 1.5587689912364 17.09916633130023 4.663253872652602 0 0 0
380 2 4.676308629156622 17.09916633130035 4.663253872652889 0 0 0
381 1 3.1175388101967134 17.999122426929137 3.10434666666667 0 0 0
382 2 7.793848267075321 17.099166331300363 4.663253872652837 0 0 0
383 1 6.235078448115998 17.999122426929503 3.1043466666666664 0 0 0
384 1 9.352618086034697 17.999122426929446 3.104346666666665 0 0 0
385 2 10.911387904994163 17.0991663313004 4.663253872652815 0 0 0
386 1 12.470157723953616 17.999122426929446 3.1043466666666686 0 0 0
387 2 14.02892754291308 17.0991663313004 4.663253872652821 0 0 0
388 1 15.587697361872557 17.999122426929453 3.104346666666668 0 0 0
389 2 17.146467180832037 17.0991663313004 4.663253872652816 0 0 0
390 1 18.705236999791488 17.99912242692944 3.1043466666666677 0 0 0
391 2 20.264006818750968 17.0991663313004 4.6632538726528185 0 0 0
392 2 23.381546456669884 17.09916633130037 4.663253872652841 0 0 0
393 1 21.822776637710415 17.999122426929446 3.104346666666668 0 0 0
394 2 26.499086094588826 17.0991663313004 4.6632538726528185 0 0 0
395 1 24.94031627562936 17.99912242692944 3.104346666666669 0 0 0
396 2 29.616625732507714 17.0991663313004 4.663253872652822 0 0 0
397 1 28.057855913548273 17.99912242692946 3.1043466666666686 0 0 0
398 1 31.175395551467172 17.999122426929446 3.1043466666666664 0 0 0
399 2 32.734165370426645 17.099166331300385 4.663253872652831 0 0 0
400 1 34.292935189386135 17.99912242692944 3.1043466666666726 0 0 0
401 2 35.851705008345604 17.0991663313004 4.663253872652821 0 0 0
402 1 37.410474827305066 17.99912242692944 3.1043466666666677 0 0 0
403 2 38.96924464626449 17.099166331300378 4.663253872652815 0 0 0
404 1 40.52801446522393 17.99912242692944 3.104346666666664 0 0 0
405 2 42.08678428418346 17.099166331300392 4.663253872652817 0 0 0
406 1 1.5587689912366596 20.698990789347825 3.1043466666666633 0 0 0
407 1 4.6763086291564715 20.69899078934797 3.104346666666663 0 0 0
408 2 3.117538810196747 19.799034693718998 4.663253872652696 0 0 0
409 1 7.793848267075333 20.698990789347977 3.1043466666666757 0 0 0
410 2 6.235078448115983 19.799034693718923 4.663253872652814 0 0 0
411 2 9.352618086034687 19.799034693718944 4.66325387265281 0 0 0
412 1 10.91138790499414 20.698990789347956 3.104346666666672 0 0 0
413 2 12.470157723953605 19.799034693718916 4.663253872652805 0 0 0
414 1 14.028927542913074 20.69899078934799 3.1043466666666686 0 0 0
415 2 15.587697361872515 19.79903469371891 4.663253872652807 0 0 0
416 1 17.14646718083201 20.698990789347956 3.104346666666668 0 0 0
417 2 18.705236999791488 19.799034693718944 4.6632538726528105 0 0 0
418 1 20.264006818750968 20.698990789347963 3.1043466666666686 0 0 0
419 1 23.381546456669852 20.69899078934797 3.1043466666666677 0 0 0
420 2 21.82277663771039 19.79903469371891 4.663253872652817 0 0 0
421 1 26.499086094588804 20.69899078934797 3.1043466666666664 0 0 0
422 2 24.940316275629307 19.799034693718916 4.663253872652807 0 0 0
423 1 29.616625732507725 20.698990789347956 3.1043466666666673 0 0 0
424 2 28.057855913548273 19.7990346937189 4.663253872652804 0 0 0
425 2 31.175395551467204 19.799034693718916 4.663253872652798 0 0 0
426 1 32.734165370426666 20.698990789347942 3.104346666666667 0 0 0
427 2 34.292935189386114 19.79903469371893 4.663253872652794 0 0 0
428 1 35.85170500834556 20.698990789347928 3.1043466666666744 0 0 0
429 2 37.410474827305016 19.799034693718895 4.66325387265286 0 0 0
430 1 38.96924464626447 20.698990789347963 3.1043466666666726 0 0 0
431 2 40.528014465223954 19.7990346937189 4.6632538726527955 0 0 0
432 1 42.08678428418346 20.698990789347956 3.104346666666665 0 0 0
433 2 1.5587689912364047 22.498903056137294 4.663253872652595 0 0 0
434 2 4.676308629156622 22.49890305613739 4.663253872652878 0 0 0
435 1 3.1175388101967214 23.398859151766196 3.104346666666665 0 0 0
436 2 7.79384826707531 22.498903056137415 4.663253872652835 0 0 0
437 1 6.235078448115994 23.39885915176655 3.1043466666666646 0 0 0
438 1 9.352618086034697 23.398859151766494 3.1043466666666664 0 0 0
439 2 10.91138790499415 22.49890305613744 4.663253872652816 0 0 0
440 1 12.470157723953621 23.39885915176651 3.1043466666666717 0 0 0
441 2 14.028927542913099 22.49890305613744 4.663253872652818 0 0 0
442 1 15.587697361872557 23.398859151766516 3.1043466666666686 0 0 0