LAMMPS data file via write_data, version 2 Aug 2023, timestep = 205, units = metal

47840 atoms
3 atom types

0 1558.7709848459995 xlo xhi
0 86.39585453952932 ylo yhi
0 50 zlo zhi
0 0 0 xy xz yz

Masses

1 95.94
2 32.065
3 32.065

Atoms # atomic

1 3 1.5587701571245898 0.8999568514222841 1.5454400477704904 0 0 0
2 3 4.6763121268153345 0.8999568514221025 1.5454400477704082 0 0 0
3 3 7.793854096507317 0.8999568514220536 1.545440047770415 0 0 0
4 3 10.911396066199318 0.8999568514220283 1.5454400477703891 0 0 0
5 3 14.028938035891281 0.8999568514221147 1.54544004777035 0 0 0
6 3 17.146480005583275 0.8999568514221294 1.5454400477703714 0 0 0
7 3 20.264021975275305 0.899956851422189 1.5454400477703378 0 0 0
8 3 23.381563944967336 0.8999568514221984 1.5454400477703372 0 0 0
9 3 26.499105914659353 0.8999568514221068 1.5454400477703267 0 0 0
10 3 29.616647884351345 0.8999568514221316 1.5454400477703774 0 0 0
11 3 3.1175411419704813 3.5998273057821866 1.5454400477699883 0 0 0
12 3 6.2350831116613525 3.599827305782336 1.5454400477703456 0 0 0
13 3 9.35262508135333 3.599827305782349 1.5454400477703576 0 0 0
14 3 12.470167051045294 3.59982730578235 1.5454400477703554 0 0 0
15 3 15.587709020737313 3.599827305782348 1.5454400477703594 0 0 0
16 3 18.705250990429295 3.599827305782357 1.54544004777035 0 0 0
17 3 21.82279296012133 3.5998273057823442 1.54544004777036 0 0 0
18 3 24.94033492981338 3.599827305782349 1.545440047770345 0 0 0
19 3 28.05787689950537 3.599827305782362 1.5454400477703472 0 0 0
20 3 31.17541886919732 3.5998273057823473 1.5454400477703685 0 0 0
21 3 1.558770157124577 6.299697760143093 1.5454400477703254 0 0 0
22 3 4.67631212681525 6.299697760142666 1.545440047770345 0 0 0
23 3 7.793854096507278 6.299697760142647 1.5454400477703796 0 0 0
24 3 10.911396066199362 6.2996977601426485 1.5454400477703532 0 0 0
25 3 14.028938035891308 6.299697760142669 1.545440047770357 0 0 0
26 3 17.146480005583282 6.299697760142675 1.5454400477703547 0 0 0
27 3 20.264021975275305 6.299697760142656 1.5454400477703598 0 0 0
28 3 23.381563944967315 6.299697760142665 1.5454400477703527 0 0 0
29 3 26.4991059146593 6.2996977601426485 1.5454400477703503 0 0 0
30 3 29.616647884351295 6.299697760142647 1.5454400477703572 0 0 0
31 3 3.117541141969996 8.999568214502832 1.545440047770091 0 0 0
32 3 6.235083111661354 8.999568214502906 1.5454400477703698 0 0 0
33 3 9.352625081353375 8.999568214502933 1.5454400477703478 0 0 0
34 3 12.470167051045335 8.999568214502947 1.5454400477703485 0 0 0
35 3 15.587709020737288 8.99956821450294 1.5454400477703567 0 0 0
36 3 18.705250990429274 8.999568214502954 1.5454400477703178 0 0 0
37 3 21.82279296012135 8.99956821450293 1.5454400477703718 0 0 0
38 3 24.940334929813325 8.99956821450295 1.5454400477703685 0 0 0
39 3 28.05787689950536 8.999568214502947 1.5454400477703751 0 0 0
40 3 31.17541886919728 8.99956821450296 1.545440047770364 0 0 0
41 3 1.5587701571244252 11.699438668863438 1.5454400477702503 0 0 0
42 3 4.676312126815297 11.699438668863236 1.54544004777039 0 0 0
43 3 7.793854096507347 11.699438668863294 1.545440047770373 0 0 0
44 3 10.911396066199362 11.699438668863246 1.5454400477703358 0 0 0
45 3 14.028938035891274 11.699438668863243 1.54544004777034 0 0 0
46 3 17.146480005583275 11.699438668863229 1.5454400477703452 0 0 0
47 3 20.264021975275288 11.699438668863246 1.5454400477703614 0 0 0
48 3 23.381563944967315 11.699438668863246 1.5454400477703483 0 0 0
49 3 26.499105914659374 11.699438668863229 1.5454400477703438 0 0 0
50 3 29.616647884351295 11.699438668863236 1.545440047770341 0 0 0
51 3 3.1175411419703 14.399309123223153 1.5454400477699897 0 0 0
52 3 6.235083111661362 14.399309123223592 1.545440047770347 0 0 0
53 3 9.35262508135333 14.399309123223572 1.545440047770361 0 0 0
54 3 12.470167051045324 14.39930912322351 1.5454400477703543 0 0 0
55 3 15.587709020737273 14.39930912322351 1.5454400477703736 0 0 0
56 3 18.7052509904293 14.399309123223544 1.5454400477703458 0 0 0
57 3 21.82279296012134 14.399309123223537 1.5454400477703485 0 0 0
58 3 24.940334929813336 14.399309123223532 1.545440047770371 0 0 0
59 3 28.057876899505263 14.399309123223532 1.5454400477703456 0 0 0
60 3 31.175418869197312 14.399309123223544 1.5454400477703607 0 0 0
61 3 1.558770157124527 17.099179577584355 1.5454400477705759 0 0 0
62 3 4.676312126815531 17.099179577583904 1.5454400477703067 0 0 0
63 3 7.793854096507206 17.099179577583918 1.545440047770395 0 0 0
64 3 10.911396066199302 17.09917957758385 1.5454400477703665 0 0 0
65 3 14.028938035891308 17.099179577583843 1.5454400477703774 0 0 0
66 3 17.146480005583282 17.09917957758385 1.5454400477703516 0 0 0
67 3 20.26402197527527 17.09917957758385 1.5454400477703563 0 0 0
68 3 23.381563944967315 17.099179577583865 1.5454400477704018 0 0 0
69 3 26.49910591465932 17.099179577583858 1.5454400477703598 0 0 0
70 3 29.616647884351366 17.09917957758388 1.5454400477703887 0 0 0
71 3 3.1175411419699555 19.799050031944095 1.5454400477701393 0 0 0
72 3 6.235083111661276 19.799050031944073 1.5454400477703527 0 0 0
73 3 9.352625081353285 19.799050031944088 1.5454400477703496 0 0 0
74 3 12.470167051045284 19.7990500319441 1.5454400477703458 0 0 0
75 3 15.587709020737261 19.799050031944123 1.5454400477703478 0 0 0
76 3 18.70525099042933 19.799050031944113 1.5454400477703385 0 0 0
77 3 21.82279296012131 19.799050031944088 1.545440047770355 0 0 0
78 3 24.940334929813375 19.79905003194417 1.5454400477703523 0 0 0
79 3 28.057876899505242 19.799050031944073 1.54544004777035 0 0 0
80 3 31.175418869197312 19.79905003194408 1.5454400477703718 0 0 0
81 3 1.558770157124408 22.498920486304968 1.545440047770496 0 0 0
82 3 4.676312126815269 22.49892048630445 1.54544004777039 0 0 0
83 3 7.793854096507282 22.49892048630448 1.5454400477703543 0 0 0
84 3 10.911396066199325 22.498920486304467 1.545440047770352 0 0 0
85 3 14.028938035891281 22.498920486304495 1.5454400477703485 0 0 0
86 3 17.146480005583236 22.49892048630448 1.5454400477703307 0 0 0
87 3 20.264021975275316 22.49892048630445 1.545440047770369 0 0 0
88 3 23.381563944967258 22.49892048630442 1.545440047770324 0 0 0
89 3 26.49910591465936 22.49892048630442 1.5454400477703196 0 0 0
90 3 29.616647884351323 22.498920486304417 1.5454400477703656 0 0 0
91 3 3.117541141969829 25.198790940664473 1.5454400477700818 0 0 0
92 3 6.2350831116612335 25.19879094066473 1.5454400477703623 0 0 0
93 3 9.352625081353299 25.19879094066479 1.5454400477703514 0 0 0
94 3 12.4701670510453 25.19879094066468 1.545440047770355 0 0 0
95 3 15.58770902073733 25.198790940664736 1.5454400477703332 0 0 0
96 3 18.705250990429327 25.198790940664736 1.5454400477703525 0 0 0
97 3 21.822792960121316 25.198790940664722 1.5454400477703574 0 0 0
98 3 24.94033492981338 25.1987909406647 1.5454400477703543 0 0 0
99 3 28.05787689950532 25.198790940664736 1.5454400477703552 0 0 0
100 3 31.17541886919727 25.198790940664722 1.5454400477703678 0 0 0
101 3 1.5587701571244383 27.898661395025194 1.5454400477706196 0 0 0
102 3 4.676312126815497 27.898661395024984 1.5454400477703274 0 0 0
103 3 7.793854096507182 27.89866139502497 1.5454400477703838 0 0 0
104 3 10.91139606619931 27.89866139502491 1.5454400477703336 0 0 0
105 3 14.028938035891308 27.898661395024963 1.545440047770367 0 0 0
106 3 17.146480005583236 27.89866139502501 1.545440047770355 0 0 0
107 3 20.26402197527529 27.898661395024977 1.5454400477703587 0 0 0
108 3 23.38156394496728 27.89866139502505 1.5454400477703625 0 0 0
109 3 26.499105914659363 27.89866139502505 1.5454400477703456 0 0 0
110 3 29.616647884351305 27.898661395024966 1.5454400477703407 0 0 0
111 3 3.1175411419702224 30.59853184938514 1.5454400477700967 0 0 0
112 3 6.235083111661339 30.598531849385182 1.5454400477703325 0 0 0
113 3 9.352625081353274 30.59853184938527 1.5454400477703634 0 0 0
114 3 12.470167051045285 30.598531849385196 1.5454400477703376 0 0 0
115 3 15.587709020737272 30.59853184938527 1.5454400477703538 0 0 0
116 3 18.70525099042931 30.598531849385235 1.5454400477703576 0 0 0
117 3 21.822792960121316 30.59853184938524 1.5454400477703336 0 0 0
118 3 24.940334929813368 30.598531849385267 1.5454400477703558 0 0 0
119 3 28.05787689950536 30.598531849385225 1.5454400477703445 0 0 0
120 3 31.175418869197312 30.59853184938521 1.545440047770348 0 0 0
121 3 1.5587701571243582 33.29840230374616 1.5454400477704722 0 0 0
122 3 4.676312126815337 33.29840230374556 1.5454400477703778 0 0 0
123 3 7.7938540965072765 33.29840230374556 1.5454400477703942 0 0 0
124 3 10.911396066199316 33.2984023037456 1.5454400477703838 0 0 0
125 3 14.02893803589129 33.2984023037456 1.545440047770377 0 0 0
126 3 17.146480005583214 33.2984023037456 1.545440047770344 0 0 0
127 3 20.26402197527527 33.2984023037456 1.5454400477703862 0 0 0
128 3 23.381563944967315 33.29840230374559 1.5454400477703747 0 0 0
129 3 26.499105914659268 33.29840230374555 1.5454400477703631 0 0 0
130 3 29.616647884351323 33.2984023037456 1.5454400477703696 0 0 0
131 3 3.117541141969917 35.9982727581058 1.545440047770156 0 0 0
132 3 6.23508311166131 35.998272758105905 1.5454400477703718 0 0 0
133 3 9.352625081353269 35.99827275810586 1.54544004777036 0 0 0
134 3 12.470167051045275 35.99827275810589 1.5454400477703405 0 0 0
135 3 15.587709020737329 35.99827275810585 1.5454400477703496 0 0 0
136 3 18.705250990429317 35.99827275810592 1.5454400477703512 0 0 0
137 3 21.82279296012133 35.99827275810589 1.5454400477703578 0 0 0
138 3 24.940334929813368 35.99827275810589 1.545440047770365 0 0 0
139 3 28.05787689950532 35.99827275810589 1.545440047770354 0 0 0
140 3 31.17541886919731 35.99827275810585 1.545440047770356 0 0 0
141 3 1.558770157124318 38.6981432124666 1.5454400477705121 0 0 0
142 3 4.676312126815304 38.698143212466256 1.545440047770329 0 0 0
143 3 7.793854096507258 38.69814321246622 1.5454400477703496 0 0 0
144 3 10.911396066199316 38.698143212466185 1.5454400477703485 0 0 0
145 3 14.02893803589129 38.698143212466206 1.545440047770342 0 0 0
146 3 17.146480005583292 38.6981432124662 1.5454400477703223 0 0 0
147 3 20.264021975275252 38.69814321246622 1.54544004777034 0 0 0
148 3 23.381563944967294 38.698143212466206 1.545440047770364 0 0 0
149 3 26.499105914659363 38.698143212466185 1.5454400477703385 0 0 0
150 3 29.616647884351313 38.69814321246622 1.545440047770387 0 0 0
151 3 3.1175411419699 41.3980136668263 1.5454400477701418 0 0 0
152 3 6.235083111661241 41.39801366682648 1.5454400477703965 0 0 0
153 3 9.352625081353251 41.39801366682645 1.5454400477703734 0 0 0
154 3 12.470167051045294 41.39801366682645 1.545440047770388 0 0 0
155 3 15.587709020737266 41.39801366682648 1.5454400477703873 0 0 0
156 3 18.70525099042929 41.398013666826394 1.5454400477703443 0 0 0
157 3 21.82279296012133 41.39801366682644 1.5454400477703756 0 0 0
158 3 24.940334929813336 41.39801366682648 1.5454400477704044 0 0 0
159 3 28.057876899505253 41.398013666826394 1.545440047770369 0 0 0
160 3 31.175418869197312 41.39801366682648 1.545440047770399 0 0 0
161 2 1.5587701571246029 0.8999568514222755 4.6632532855628925 0 0 0
162 2 4.676312126815323 0.89995685142215 4.663253285562967 0 0 0
163 1 3.1175411419700345 1.7999136524089168 3.1043466666666317 0 0 0
164 2 7.793854096507309 0.899956851422077 4.663253285562957 0 0 0
165 1 6.235083111661295 1.7999136524084511 3.1043466666666544 0 0 0
166 1 9.352625081353327 1.7999136524084645 3.1043466666666792 0 0 0
167 2 10.911396066199318 0.8999568514220787 4.6632532855629725 0 0 0
168 1 12.470167051045289 1.7999136524084751 3.104346666666673 0 0 0
169 2 14.028938035891265 0.8999568514221138 4.66325328556299 0 0 0
170 1 15.587709020737245 1.7999136524084962 3.104346666666684 0 0 0
171 2 17.146480005583246 0.8999568514221513 4.6632532855629805 0 0 0
172 1 18.705250990429295 1.7999136524084995 3.1043466666666717 0 0 0
173 2 20.26402197527529 0.8999568514222069 4.66325328556301 0 0 0
174 2 23.381563944967336 0.899956851422198 4.663253285563029 0 0 0
175 1 21.82279296012134 1.7999136524084982 3.1043466666666815 0 0 0
176 2 26.499105914659282 0.8999568514221352 4.6632532855630355 0 0 0
177 1 24.940334929813346 1.7999136524084896 3.104346666666678 0 0 0
178 2 29.616647884351316 0.899956851422149 4.663253285563005 0 0 0
179 1 28.0578768995053 1.7999136524084787 3.104346666666687 0 0 0
180 1 31.17541886919733 1.7999136524085013 3.1043466666666606 0 0 0
181 1 1.5587701571236106 4.499784106768404 3.1043466666665918 0 0 0
182 1 4.676312126815759 4.499784106768825 3.104346666666617 0 0 0
183 2 3.1175411419704617 3.599827305782232 4.663253285563347 0 0 0
184 1 7.79385409650731 4.499784106768717 3.1043466666666744 0 0 0
185 2 6.235083111661323 3.599827305782341 4.663253285563001 0 0 0
186 2 9.352625081353322 3.599827305782337 4.663253285563008 0 0 0
187 1 10.911396066199307 4.499784106768742 3.1043466666666744 0 0 0
188 2 12.470167051045284 3.599827305782365 4.66325328556298 0 0 0
189 1 14.0289380358913 4.4997841067687565 3.1043466666666664 0 0 0
190 2 15.587709020737261 3.599827305782385 4.663253285562983 0 0 0
191 1 17.146480005583285 4.499784106768753 3.104346666666671 0 0 0
192 2 18.7052509904293 3.59982730578235 4.6632532855629805 0 0 0
193 1 20.26402197527528 4.499784106768739 3.104346666666672 0 0 0
194 1 23.381563944967326 4.4997841067687405 3.104346666666678 0 0 0
195 2 21.82279296012133 3.5998273057823473 4.663253285562976 0 0 0
196 1 26.49910591465932 4.499784106768755 3.104346666666659 0 0 0
197 2 24.94033492981338 3.5998273057823553 4.6632532855629965 0 0 0
198 1 29.616647884351313 4.499784106768751 3.1043466666666717 0 0 0
199 2 28.057876899505274 3.599827305782349 4.663253285562971 0 0 0
200 2 31.17541886919731 3.599827305782385 4.663253285562981 0 0 0
201 2 1.5587701571245556 6.2996977601430375 4.663253285563009 0 0 0
202 2 4.67631212681523 6.299697760142633 4.663253285562979 0 0 0
203 1 3.1175411419699026 7.199654561129539 3.1043466666666313 0 0 0
204 2 7.793854096507286 6.2996977601426485 4.663253285562984 0 0 0
205 1 6.235083111661215 7.199654561129007 3.104346666666676 0 0 0
206 1 9.35262508135333 7.1996545611290275 3.1043466666666726 0 0 0
207 2 10.911396066199362 6.2996977601426485 4.663253285562986 0 0 0
208 1 12.470167051045342 7.199654561129056 3.104346666666675 0 0 0
209 2 14.028938035891308 6.29969776014265 4.6632532855629805 0 0 0
210 1 15.587709020737288 7.199654561129045 3.1043466666666757 0 0 0
211 2 17.146480005583275 6.299697760142674 4.663253285562982 0 0 0
212 1 18.705250990429295 7.199654561129068 3.1043466666666664 0 0 0
213 2 20.264021975275305 6.299697760142663 4.663253285562968 0 0 0
214 2 23.381563944967315 6.299697760142663 4.663253285562998 0 0 0
215 1 21.822792960121333 7.199654561129037 3.104346666666678 0 0 0
216 2 26.4991059146593 6.299697760142656 4.663253285562992 0 0 0
217 1 24.94033492981332 7.199654561129043 3.1043466666666752 0 0 0
218 2 29.616647884351295 6.299697760142654 4.663253285562976 0 0 0
219 1 28.057876899505278 7.199654561129048 3.104346666666672 0 0 0
220 1 31.17541886919732 7.199654561129015 3.1043466666666637 0 0 0
221 1 1.5587701571240191 9.899525015488996 3.104346666666625 0 0 0
222 1 4.676312126815571 9.89952501548937 3.1043466666666784 0 0 0
223 2 3.1175411419699732 8.999568214502789 4.663253285563277 0 0 0
224 1 7.793854096507359 9.899525015489328 3.1043466666666655 0 0 0
225 2 6.235083111661355 8.999568214502935 4.663253285563007 0 0 0
226 2 9.352625081353375 8.99956821450294 4.663253285562987 0 0 0
227 1 10.911396066199348 9.89952501548935 3.1043466666666637 0 0 0
228 2 12.470167051045289 8.999568214502943 4.663253285562983 0 0 0
229 1 14.0289380358913 9.899525015489344 3.104346666666672 0 0 0
230 2 15.587709020737307 8.99956821450295 4.663253285562977 0 0 0
231 1 17.146480005583303 9.899525015489328 3.1043466666666752 0 0 0
232 2 18.70525099042933 8.999568214502936 4.663253285562989 0 0 0
233 1 20.26402197527532 9.899525015489331 3.1043466666666775 0 0 0
234 1 23.381563944967347 9.899525015489344 3.1043466666666784 0 0 0
235 2 21.82279296012135 8.999568214502947 4.663253285562983 0 0 0
236 1 26.499105914659342 9.899525015489342 3.1043466666666686 0 0 0
237 2 24.940334929813325 8.99956821450295 4.6632532855629805 0 0 0
238 1 29.616647884351327 9.899525015489358 3.10434666666667 0 0 0
239 2 28.05787689950536 8.99956821450297 4.663253285562964 0 0 0
240 2 31.17541886919731 8.999568214502954 4.663253285562976 0 0 0
241 2 1.5587701571243768 11.699438668863486 4.663253285562965 0 0 0
242 2 4.676312126815245 11.699438668863294 4.663253285562966 0 0 0
243 1 3.1175411419698094 12.599395469849883 3.104346666666613 0 0 0
244 2 7.793854096507348 11.699438668863253 4.663253285562981 0 0 0
245 1 6.235083111661274 12.59939546984969 3.1043466666666717 0 0 0
246 1 9.352625081353384 12.599395469849632 3.104346666666669 0 0 0
247 2 10.911396066199378 11.699438668863253 4.663253285562988 0 0 0
248 1 12.470167051045335 12.599395469849648 3.1043466666666726 0 0 0
249 2 14.028938035891285 11.699438668863246 4.663253285562991 0 0 0
250 1 15.587709020737273 12.599395469849622 3.1043466666666713 0 0 0
251 2 17.146480005583246 11.699438668863236 4.663253285562981 0 0 0
252 1 18.705250990429274 12.599395469849613 3.1043466666666832 0 0 0
253 2 20.264021975275348 11.699438668863253 4.663253285562994 0 0 0
254 2 23.381563944967287 11.69943866886324 4.663253285562995 0 0 0
255 1 21.82279296012131 12.599395469849641 3.1043466666666637 0 0 0
256 2 26.499105914659353 11.699438668863205 4.6632532855630116 0 0 0
257 1 24.940334929813353 12.599395469849613 3.1043466666666855 0 0 0
258 2 29.616647884351295 11.699438668863229 4.663253285562999 0 0 0
259 1 28.0578768995053 12.599395469849634 3.1043466666666752 0 0 0
260 1 31.175418869197298 12.599395469849616 3.1043466666666775 0 0 0
261 1 1.558770157123566 15.299265924209397 3.104346666666752 0 0 0
262 1 4.676312126815636 15.29926592421 3.1043466666666513 0 0 0
263 2 3.1175411419701624 14.39930912322323 4.663253285563169 0 0 0
264 1 7.7938540965073155 15.29926592420997 3.104346666666675 0 0 0
265 2 6.2350831116613215 14.399309123223617 4.663253285562999 0 0 0
266 2 9.35262508135334 14.399309123223548 4.663253285562993 0 0 0
267 1 10.911396066199313 15.299265924209925 3.1043466666666695 0 0 0
268 2 12.470167051045316 14.39930912322352 4.663253285562984 0 0 0
269 1 14.02893803589129 15.299265924209914 3.1043466666666735 0 0 0
270 2 15.587709020737282 14.399309123223551 4.663253285562962 0 0 0
271 1 17.146480005583264 15.299265924209937 3.1043466666666677 0 0 0
272 2 18.70525099042929 14.399309123223528 4.663253285562976 0 0 0
273 1 20.264021975275327 15.2992659242099 3.1043466666666797 0 0 0
274 1 23.381563944967336 15.299265924209932 3.1043466666666824 0 0 0
275 2 21.82279296012134 14.399309123223503 4.663253285562997 0 0 0
276 1 26.499105914659353 15.299265924209973 3.1043466666666726 0 0 0
277 2 24.940334929813336 14.399309123223565 4.6632532855629565 0 0 0
278 1 29.616647884351334 15.299265924209928 3.1043466666666664 0 0 0
279 2 28.05787689950533 14.399309123223528 4.6632532855629805 0 0 0
280 2 31.175418869197312 14.399309123223537 4.663253285562993 0 0 0
281 2 1.558770157124439 17.099179577584223 4.663253285562519 0 0 0
282 2 4.676312126815499 17.099179577583893 4.663253285563004 0 0 0
283 1 3.117541141970244 17.99913637857078 3.10434666666663 0 0 0
284 2 7.793854096507206 17.099179577583932 4.6632532855629805 0 0 0
285 1 6.2350831116613 17.999136378570267 3.1043466666666717 0 0 0
286 1 9.352625081353262 17.999136378570213 3.104346666666675 0 0 0
287 2 10.911396066199297 17.09917957758385 4.663253285562969 0 0 0
288 1 12.4701670510453 17.999136378570213 3.104346666666671 0 0 0
289 2 14.028938035891281 17.099179577583843 4.66325328556297 0 0 0
290 1 15.587709020737277 17.999136378570228 3.104346666666671 0 0 0
291 2 17.146480005583282 17.099179577583865 4.663253285562973 0 0 0
292 1 18.705250990429327 17.999136378570213 3.1043466666666855 0 0 0
293 2 20.264021975275394 17.09917957758385 4.6632532855629645 0 0 0
294 2 23.38156394496728 17.099179577583865 4.663253285562975 0 0 0
295 1 21.822792960121337 17.999136378570235 3.1043466666666597 0 0 0
296 2 26.49910591465933 17.09917957758385 4.663253285563006 0 0 0
297 1 24.940334929813357 17.999136378570235 3.104346666666686 0 0 0
298 2 29.616647884351305 17.099179577583897 4.663253285562941 0 0 0
299 1 28.0578768995053 17.999136378570235 3.1043466666666637 0 0 0
300 1 31.17541886919732 17.999136378570256 3.104346666666697 0 0 0
301 1 1.558770157123076 20.69900683293007 3.10434666666663 0 0 0
302 1 4.676312126815539 20.6990068329306 3.1043466666666775 0 0 0
303 2 3.1175411419699324 19.799050031943988 4.663253285563226 0 0 0
304 1 7.793854096507263 20.699006832930472 3.1043466666666615 0 0 0
305 2 6.2350831116613 19.799050031944088 4.66325328556303 0 0 0
306 2 9.352625081353274 19.799050031944084 4.663253285562989 0 0 0
307 1 10.911396066199273 20.69900683293051 3.1043466666666686 0 0 0
308 2 12.470167051045289 19.79905003194408 4.663253285562988 0 0 0
309 1 14.02893803589128 20.699006832930515 3.1043466666666717 0 0 0
310 2 15.587709020737261 19.79905003194408 4.663253285562979 0 0 0
311 1 17.146480005583282 20.69900683293053 3.1043466666666686 0 0 0
312 2 18.705250990429317 19.79905003194411 4.663253285562976 0 0 0
313 1 20.264021975275316 20.699006832930518 3.1043466666666744 0 0 0
314 1 23.381563944967294 20.6990068329305 3.1043466666666704 0 0 0
315 2 21.82279296012131 19.79905003194411 4.663253285562984 0 0 0
316 1 26.499105914659342 20.699006832930493 3.104346666666687 0 0 0
317 2 24.940334929813368 19.799050031944073 4.663253285562971 0 0 0
318 1 29.616647884351316 20.699006832930465 3.1043466666666775 0 0 0
319 2 28.05787689950537 19.799050031944102 4.663253285562979 0 0 0
320 2 31.175418869197312 19.79905003194415 4.663253285562978 0 0 0
321 2 1.5587701571244097 22.49892048630493 4.6632532855628845 0 0 0
322 2 4.676312126815256 22.498920486304435 4.663253285563026 0 0 0
323 1 3.117541141969998 23.39887728729127 3.104346666666602 0 0 0
324 2 7.793854096507302 22.49892048630448 4.663253285562989 0 0 0
325 1 6.235083111661223 23.398877287290777 3.1043466666666695 0 0 0
326 1 9.352625081353317 23.39887728729083 3.1043466666666637 0 0 0
327 2 10.911396066199325 22.498920486304403 4.663253285562987 0 0 0
328 1 12.47016705104529 23.398877287290844 3.104346666666678 0 0 0
329 2 14.028938035891281 22.498920486304495 4.66325328556298 0 0 0
330 1 15.587709020737261 23.39887728729083 3.104346666666676 0 0 0
331 2 17.146480005583236 22.49892048630448 4.663253285562994 0 0 0
332 1 18.705250990429292 23.39887728729081 3.1043466666666806 0 0 0
333 2 20.264021975275366 22.49892048630445 4.663253285562979 0 0 0
334 2 23.381563944967336 22.49892048630442 4.663253285562984 0 0 0
335 1 21.82279296012135 23.398877287290873 3.1043466666666717 0 0 0
336 2 26.499105914659413 22.49892048630442 4.6632532855630044 0 0 0
337 1 24.940334929813375 23.39887728729079 3.104346666666675 0 0 0
338 2 29.616647884351316 22.49892048630442 4.663253285563032 0 0 0
339 1 28.05787689950533 23.398877287290816 3.1043466666666837 0 0 0
340 1 31.17541886919733 23.398877287290777 3.104346666666676 0 0 0
341 1 1.5587701571231418 26.09874774165023 3.104346666666615 0 0 0
342 1 4.676312126815404 26.098747741651152 3.1043466666665767 0 0 0
343 2 3.1175411419698142 25.19879094066451 4.663253285563169 0 0 0
344 1 7.7938540965072365 26.098747741651113 3.1043466666666952 0 0 0
345 2 6.2350831116612255 25.19879094066468 4.663253285563009 0 0 0
346 2 9.352625081353304 25.198790940664722 4.663253285562998 0 0 0
347 1 10.911396066199302 26.098747741651064 3.104346666666663 0 0 0
348 2 12.470167051045285 25.198790940664722 4.663253285562968 0 0 0
349 1 14.0289380358913 26.09874774165107 3.104346666666656 0 0 0
350 2 15.587709020737277 25.19879094066479 4.663253285562999 0 0 0
351 1 17.146480005583285 26.098747741651092 3.1043466666666686 0 0 0
352 2 18.7052509904293 25.198790940664736 4.663253285562961 0 0 0
353 1 20.264021975275327 26.0987477416511 3.1043466666666744 0 0 0
354 1 23.381563944967297 26.0987477416511 3.1043466666666597 0 0 0
355 2 21.82279296012133 25.198790940664722 4.663253285562988 0 0 0
356 1 26.49910591465936 26.09874774165113 3.1043466666666744 0 0 0
357 2 24.940334929813336 25.198790940664708 4.66325328556302 0 0 0
358 1 29.61664788435129 26.09874774165113 3.1043466666666863 0 0 0
359 2 28.057876899505338 25.19879094066475 4.663253285563005 0 0 0
360 2 31.17541886919726 25.198790940664736 4.663253285562977 0 0 0
361 2 1.5587701571243813 27.89866139502509 4.6632532855626225 0 0 0
362 2 4.676312126815519 27.89866139502491 4.663253285563073 0 0 0
363 1 3.1175411419701806 28.798618196011734 3.10434666666661 0 0 0
364 2 7.793854096507198 27.898661395025066 4.663253285562971 0 0 0
365 1 6.23508311166128 28.798618196011358 3.1043466666666597 0 0 0
366 1 9.35262508135328 28.79861819601138 3.1043466666666553 0 0 0
367 2 10.911396066199297 27.89866139502491 4.663253285562976 0 0 0
368 1 12.470167051045294 28.798618196011365 3.104346666666673 0 0 0
369 2 14.028938035891306 27.89866139502497 4.663253285562957 0 0 0
370 1 15.587709020737277 28.79861819601138 3.1043466666666792 0 0 0
371 2 17.146480005583303 27.89866139502497 4.6632532855629885 0 0 0
372 1 18.70525099042929 28.79861819601138 3.1043466666666695 0 0 0
373 2 20.264021975275305 27.89866139502498 4.663253285562969 0 0 0
374 2 23.381563944967297 27.898661395024952 4.6632532855629885 0 0 0
375 1 21.822792960121305 28.798618196011386 3.1043466666666863 0 0 0
376 2 26.499105914659342 27.898661395024938 4.6632532855630116 0 0 0
377 1 24.940334929813336 28.798618196011358 3.1043466666666926 0 0 0
378 2 29.616647884351295 27.89866139502505 4.663253285562975 0 0 0
379 1 28.057876899505327 28.798618196011358 3.104346666666672 0 0 0
380 1 31.17541886919733 28.79861819601135 3.104346666666669 0 0 0
381 1 1.5587701571239225 31.498488650371296 3.104346666666633 0 0 0
382 1 4.676312126815706 31.498488650371755 3.104346666666675 0 0 0
383 2 3.117541141970207 30.598531849385125 4.663253285563308 0 0 0
384 1 7.793854096507271 31.49848865037166 3.104346666666675 0 0 0
385 2 6.23508311166137 30.59853184938519 4.6632532855630195 0 0 0
386 2 9.352625081353251 30.598531849385292 4.663253285562979 0 0 0
387 1 10.911396066199282 31.498488650371687 3.1043466666666726 0 0 0
388 2 12.470167051045285 30.598531849385296 4.663253285562986 0 0 0
389 1 14.028938035891295 31.498488650371687 3.1043466666666695 0 0 0
390 2 15.587709020737288 30.598531849385243 4.663253285562993 0 0 0
391 1 17.146480005583264 31.49848865037168 3.1043466666666633 0 0 0
392 2 18.70525099042929 30.598531849385235 4.663253285562982 0 0 0
393 1 20.264021975275305 31.49848865037166 3.104346666666671 0 0 0
394 1 23.381563944967315 31.49848865037164 3.104346666666664 0 0 0
395 2 21.82279296012134 30.59853184938524 4.663253285563001 0 0 0
396 1 26.499105914659353 31.49848865037168 3.104346666666662 0 0 0
397 2 24.940334929813417 30.598531849385267 4.663253285562967 0 0 0
398 1 29.616647884351345 31.498488650371666 3.1043466666666744 0 0 0
399 2 28.05787689950536 30.598531849385225 4.663253285562977 0 0 0
400 2 31.175418869197312 30.598531849385225 4.663253285562981 0 0 0
401 2 1.5587701571243884 33.29840230374617 4.663253285562891 0 0 0
402 2 4.676312126815304 33.2984023037456 4.663253285563012 0 0 0
403 1 3.117541141969962 34.19835910473242 3.1043466666666193 0 0 0
404 2 7.793854096507289 33.298402303745576 4.663253285562997 0 0 0
405 1 6.235083111661251 34.198359104731956 3.104346666666675 0 0 0
406 1 9.352625081353283 34.198359104731956 3.104346666666675 0 0 0
407 2 10.911396066199302 33.2984023037456 4.663253285562982 0 0 0
408 1 12.4701670510453 34.198359104731956 3.104346666666669 0 0 0
409 2 14.02893803589129 33.29840230374561 4.663253285562966 0 0 0
410 1 15.587709020737297 34.19835910473194 3.104346666666676 0 0 0
411 2 17.146480005583282 33.298402303745625 4.663253285562985 0 0 0
412 1 18.705250990429292 34.19835910473192 3.1043466666666633 0 0 0
413 2 20.264021975275394 33.2984023037456 4.663253285562949 0 0 0
414 2 23.381563944967354 33.29840230374553 4.663253285562976 0 0 0
415 1 21.822792960121387 34.198359104731956 3.1043466666666717 0 0 0
416 2 26.499105914659257 33.29840230374555 4.663253285562982 0 0 0
417 1 24.940334929813325 34.19835910473194 3.1043466666666775 0 0 0
418 2 29.616647884351345 33.29840230374556 4.663253285562971 0 0 0
419 1 28.057876899505278 34.19835910473193 3.1043466666666846 0 0 0
420 1 31.175418869197333 34.198359104731956 3.104346666666673 0 0 0
421 1 1.5587701571231347 36.89822955909175 3.1043466666666686 0 0 0
422 1 4.6763121268155 36.89822955909235 3.1043466666666264 0 0 0
423 2 3.1175411419698884 35.99827275810577 4.663253285563179 0 0 0
424 1 7.793854096507274 36.89822955909225 3.1043466666666744 0 0 0
425 2 6.2350831116612735 35.99827275810589 4.663253285562996 0 0 0
426 2 9.352625081353285 35.99827275810589 4.6632532855629725 0 0 0
427 1 10.911396066199286 36.898229559092215 3.1043466666666704 0 0 0
428 2 12.470167051045289 35.99827275810581 4.6632532855629965 0 0 0
429 1 14.028938035891274 36.89822955909233 3.104346666666668 0 0 0
430 2 15.587709020737268 35.99827275810585 4.663253285562998 0 0 0
431 1 17.146480005583292 36.89822955909233 3.1043466666666806 0 0 0
432 2 18.7052509904293 35.99827275810583 4.663253285562974 0 0 0
433 1 20.264021975275316 36.89822955909229 3.104346666666685 0 0 0
434 1 23.38156394496728 36.898229559092286 3.1043466666666886 0 0 0
435 2 21.82279296012133 35.99827275810589 4.66325328556299 0 0 0
436 1 26.499105914659363 36.89822955909232 3.1043466666666695 0 0 0
437 2 24.94033492981338 35.99827275810589 4.663253285562982 0 0 0
438 1 29.616647884351337 36.89822955909234 3.104346666666679 0 0 0
439 2 28.05787689950532 35.99827275810589 4.6632532855629725 0 0 0
440 2 31.17541886919728 35.998272758105905 4.663253285562989 0 0 0
441 2 1.5587701571243127 38.69814321246651 4.663253285562876 0 0 0
442 2 4.676312126815256 38.69814321246627 4.663253285562986 0 0 0
443 1 3.117541141969931 39.59810001345291 3.1043466666666304 0 0 0