LAMMPS data file via write_data, version 2 Aug 2023, timestep = 362, units = metal

46432 atoms
3 atom types

0 1558.768285161042 xlo xhi
0 86.39570709595013 ylo yhi
0 50 zlo zhi
0 0 0 xy xz yz

Masses

1 95.94
2 32.065
3 32.065

Atoms # atomic

1 3 1.5587674574412826 0.8999553064420744 1.545439946337348 0 0 0
2 3 4.676304027762827 0.8999553064421348 1.5454399463382924 0 0 0
3 3 7.793840598084629 0.8999553064419794 1.5454399463380857 0 0 0
4 3 10.911377168406089 0.8999553064420857 1.5454399463380446 0 0 0
5 3 14.028913738727969 0.8999553064418248 1.545439946338141 0 0 0
6 3 17.14645030905006 0.8999553064420822 1.5454399463380553 0 0 0
7 3 20.263986879372194 0.8999553064420119 1.5454399463381254 0 0 0
8 3 23.38152344969445 0.8999553064420317 1.5454399463380821 0 0 0
9 3 26.499060020016437 0.8999553064418303 1.5454399463381832 0 0 0
10 3 29.616596590338634 0.8999553064420783 1.5454399463380963 0 0 0
11 3 3.117535742601417 3.5998211531899784 1.545439946337951 0 0 0
12 3 6.235072312923726 3.599821153190174 1.5454399463382278 0 0 0
13 3 9.352608883245429 3.5998211531902236 1.5454399463381023 0 0 0
14 3 12.470145453566982 3.599821153190266 1.5454399463381168 0 0 0
15 3 15.587682023889018 3.5998211531902853 1.545439946338156 0 0 0
16 3 18.705218594211246 3.5998211531902697 1.5454399463381532 0 0 0
17 3 21.82275516453341 3.5998211531902973 1.5454399463381703 0 0 0
18 3 24.94029173485549 3.599821153190266 1.5454399463381063 0 0 0
19 3 28.057828305177495 3.599821153190285 1.5454399463381499 0 0 0
20 3 31.175364875499685 3.5998211531903004 1.545439946338172 0 0 0
21 3 1.5587674574408141 6.299686999938924 1.5454399463381547 0 0 0
22 3 4.676304027762743 6.29968699993914 1.5454399463383013 0 0 0
23 3 7.793840598084703 6.299686999938742 1.5454399463380832 0 0 0
24 3 10.911377168406071 6.2996869999387455 1.5454399463381137 0 0 0
25 3 14.028913738727987 6.299686999938784 1.5454399463381443 0 0 0
26 3 17.14645030905014 6.299686999938821 1.5454399463381405 0 0 0
27 3 20.26398687937223 6.299686999938811 1.5454399463381547 0 0 0
28 3 23.381523449694424 6.299686999938793 1.5454399463381228 0 0 0
29 3 26.499060020016525 6.299686999938773 1.5454399463381334 0 0 0
30 3 29.61659659033863 6.299686999938835 1.545439946338168 0 0 0
31 3 3.117535742601443 8.999552846687264 1.545439946337097 0 0 0
32 3 6.235072312923182 8.999552846687264 1.545439946338309 0 0 0
33 3 9.352608883245582 8.999552846687143 1.5454399463380641 0 0 0
34 3 12.470145453567028 8.999552846687168 1.5454399463381134 0 0 0
35 3 15.587682023889018 8.999552846687202 1.5454399463381356 0 0 0
36 3 18.705218594211225 8.999552846687202 1.5454399463381419 0 0 0
37 3 21.82275516453341 8.999552846687235 1.5454399463381912 0 0 0
38 3 24.94029173485549 8.99955284668718 1.5454399463381203 0 0 0
39 3 28.057828305177463 8.999552846687212 1.545439946338163 0 0 0
40 3 31.175364875499728 8.999552846687235 1.5454399463382074 0 0 0
41 3 1.5587674574416641 11.69941869343541 1.5454399463373447 0 0 0
42 3 4.6763040277627965 11.699418693435662 1.5454399463383892 0 0 0
43 3 7.793840598084659 11.699418693435621 1.5454399463381001 0 0 0
44 3 10.911377168406077 11.699418693435607 1.5454399463381443 0 0 0
45 3 14.028913738727944 11.699418693435636 1.5454399463381903 0 0 0
46 3 17.146450309050117 11.699418693435614 1.5454399463381483 0 0 0
47 3 20.263986879372194 11.699418693435607 1.5454399463381832 0 0 0
48 3 23.38152344969439 11.699418693435655 1.5454399463381208 0 0 0
49 3 26.4990600200164 11.699418693435655 1.545439946338149 0 0 0
50 3 29.61659659033854 11.699418693435662 1.5454399463381872 0 0 0
51 3 3.117535742601389 14.39928454018385 1.5454399463379582 0 0 0
52 3 6.235072312923712 14.399284540184055 1.5454399463382125 0 0 0
53 3 9.352608883245475 14.39928454018409 1.5454399463381001 0 0 0
54 3 12.470145453566987 14.399284540184114 1.5454399463381019 0 0 0
55 3 15.587682023889007 14.399284540184121 1.5454399463381265 0 0 0
56 3 18.70521859421122 14.39928454018413 1.5454399463381974 0 0 0
57 3 21.82275516453347 14.399284540184137 1.5454399463381727 0 0 0
58 3 24.940291734855414 14.399284540184073 1.5454399463380992 0 0 0
59 3 28.057828305177505 14.399284540184109 1.545439946338142 0 0 0
60 3 31.175364875499675 14.399284540184121 1.5454399463381878 0 0 0
61 3 1.5587674574408525 17.099150386932607 1.5454399463381612 0 0 0
62 3 4.676304027762724 17.099150386932806 1.5454399463383144 0 0 0
63 3 7.793840598084698 17.099150386932408 1.5454399463380462 0 0 0
64 3 10.911377168406105 17.09915038693239 1.5454399463380897 0 0 0
65 3 14.02891373872798 17.09915038693245 1.5454399463381034 0 0 0
66 3 17.146450309050028 17.09915038693245 1.5454399463381143 0 0 0
67 3 20.263986879372307 17.09915038693251 1.5454399463381945 0 0 0
68 3 23.381523449694413 17.099150386932504 1.5454399463380577 0 0 0
69 3 26.49906002001648 17.099150386932504 1.5454399463381299 0 0 0
70 3 29.61659659033862 17.099150386932486 1.5454399463381547 0 0 0
71 3 3.1175357426014587 19.7990162336811 1.5454399463371173 0 0 0
72 3 6.235072312923129 19.799016233680987 1.5454399463383515 0 0 0
73 3 9.352608883245608 19.799016233680863 1.5454399463381108 0 0 0
74 3 12.470145453567023 19.799016233680863 1.545439946338156 0 0 0
75 3 15.587682023889052 19.79901623368093 1.5454399463381872 0 0 0
76 3 18.705218594211214 19.79901623368093 1.5454399463381523 0 0 0
77 3 21.8227551645334 19.79901623368091 1.5454399463381672 0 0 0
78 3 24.940291734855506 19.79901623368093 1.5454399463381054 0 0 0
79 3 28.05782830517759 19.799016233680952 1.5454399463381854 0 0 0
80 3 31.175364875499685 19.799016233680952 1.545439946338254 0 0 0
81 3 1.5587674574413735 22.498882080429205 1.545439946337367 0 0 0
82 3 4.676304027762759 22.498882080429507 1.545439946338347 0 0 0
83 3 7.7938405980846035 22.49888208042935 1.5454399463380752 0 0 0
84 3 10.911377168406071 22.498882080429354 1.545439946338085 0 0 0
85 3 14.028913738727987 22.498882080429325 1.545439946338122 0 0 0
86 3 17.146450309050163 22.498882080429354 1.5454399463381356 0 0 0
87 3 20.263986879372354 22.49888208042941 1.5454399463381148 0 0 0
88 3 23.38152344969439 22.49888208042941 1.54543994633809 0 0 0
89 3 26.499060020016525 22.498882080429397 1.5454399463381023 0 0 0
90 3 29.616596590338588 22.498882080429436 1.5454399463381792 0 0 0
91 3 3.1175357426012895 25.198747927177475 1.5454399463380744 0 0 0
92 3 6.235072312923619 25.19874792717783 1.545439946338214 0 0 0
93 3 9.352608883245432 25.198747927177767 1.5454399463381419 0 0 0
94 3 12.47014545356695 25.198747927177752 1.5454399463381452 0 0 0
95 3 15.587682023889013 25.19874792717783 1.545439946338139 0 0 0
96 3 18.705218594211193 25.198747927177767 1.5454399463382098 0 0 0
97 3 21.8227551645334 25.198747927177816 1.5454399463382087 0 0 0
98 3 24.940291734855467 25.198747927177735 1.5454399463382047 0 0 0
99 3 28.0578283051775 25.19874792717778 1.5454399463381667 0 0 0
100 3 31.175364875499696 25.19874792717785 1.5454399463382007 0 0 0
101 3 1.5587674574418064 27.898613773926275 1.5454399463383461 0 0 0
102 3 4.6763040277626775 27.898613773926463 1.5454399463383994 0 0 0
103 3 7.793840598084469 27.89861377392626 1.5454399463380946 0 0 0
104 3 10.911377168406032 27.898613773926193 1.5454399463381452 0 0 0
105 3 14.02891373872797 27.898613773926137 1.5454399463381285 0 0 0
106 3 17.146450309050106 27.8986137739263 1.5454399463381316 0 0 0
107 3 20.263986879372275 27.89861377392633 1.5454399463381172 0 0 0
108 3 23.381523449694356 27.898613773926357 1.5454399463381745 0 0 0
109 3 26.49906002001641 27.898613773926275 1.5454399463381387 0 0 0
110 3 29.61659659033862 27.89861377392629 1.545439946338145 0 0 0
111 3 3.1175357426019765 30.598479620674688 1.5454399463376014 0 0 0
112 3 6.2350723129236245 30.598479620674496 1.5454399463382482 0 0 0
113 3 9.35260888324546 30.59847962067466 1.5454399463380375 0 0 0
114 3 12.47014545356695 30.59847962067463 1.545439946338141 0 0 0
115 3 15.58768202388904 30.59847962067466 1.5454399463381923 0 0 0
116 3 18.705218594211324 30.59847962067466 1.5454399463381292 0 0 0
117 3 21.822755164533387 30.59847962067474 1.5454399463381652 0 0 0
118 3 24.940291734855467 30.598479620674645 1.5454399463380686 0 0 0
119 3 28.057828305177477 30.598479620674578 1.5454399463380981 0 0 0
120 3 31.175364875499646 30.598479620674688 1.5454399463382709 0 0 0
121 3 1.5587674574397985 33.298345467423616 1.5454399463383666 0 0 0
122 3 4.676304027762812 33.298345467423246 1.5454399463382507 0 0 0
123 3 7.793840598084575 33.298345467423026 1.5454399463380926 0 0 0
124 3 10.911377168406071 33.298345467423076 1.5454399463381037 0 0 0
125 3 14.02891373872802 33.29834546742309 1.545439946338169 0 0 0
126 3 17.146450309050124 33.29834546742311 1.5454399463381703 0 0 0
127 3 20.263986879372105 33.29834546742312 1.545439946338234 0 0 0
128 3 23.381523449694335 33.298345467423076 1.5454399463380986 0 0 0
129 3 26.49906002001649 33.29834546742312 1.5454399463381203 0 0 0
130 3 29.616596590338542 33.298345467423076 1.5454399463381878 0 0 0
131 3 3.117535742601795 35.99821131417161 1.5454399463375856 0 0 0
132 3 6.235072312923518 35.99821131417141 1.5454399463382964 0 0 0
133 3 9.352608883245509 35.99821131417136 1.5454399463381292 0 0 0
134 3 12.470145453567033 35.99821131417141 1.545439946338074 0 0 0
135 3 15.587682023888982 35.99821131417147 1.5454399463381499 0 0 0
136 3 18.705218594211246 35.99821131417171 1.5454399463381308 0 0 0
137 3 21.822755164533387 35.998211314171584 1.5454399463382629 0 0 0
138 3 24.940291734855457 35.99821131417148 1.545439946338202 0 0 0
139 3 28.057828305177477 35.99821131417164 1.5454399463381663 0 0 0
140 3 31.175364875499696 35.99821131417156 1.5454399463382829 0 0 0
141 3 1.5587674574415644 38.69807716091984 1.545439946338079 0 0 0
142 3 4.6763040277629955 38.69807716092016 1.5454399463380823 0 0 0
143 3 7.7938405980847705 38.698077160919894 1.5454399463381212 0 0 0
144 3 10.911377168406077 38.698077160919894 1.5454399463381017 0 0 0
145 3 14.028913738727937 38.698077160919894 1.5454399463381239 0 0 0
146 3 17.14645030905006 38.698077160919894 1.5454399463380701 0 0 0
147 3 20.263986879372208 38.69807716092006 1.5454399463380888 0 0 0
148 3 23.38152344969438 38.698077160919986 1.5454399463380943 0 0 0
149 3 26.499060020016426 38.698077160919894 1.5454399463380835 0 0 0
150 3 29.61659659033861 38.698077160919986 1.5454399463381547 0 0 0
151 3 3.1175357426012273 41.39794300766854 1.5454399463372155 0 0 0
152 3 6.235072312923285 41.39794300766843 1.5454399463384194 0 0 0
153 3 9.352608883245585 41.397943007668395 1.5454399463380784 0 0 0
154 3 12.470145453567058 41.39794300766836 1.545439946338161 0 0 0
155 3 15.587682023888984 41.39794300766844 1.5454399463382165 0 0 0
156 3 18.705218594211225 41.39794300766858 1.5454399463382926 0 0 0
157 3 21.82275516453341 41.39794300766848 1.545439946338262 0 0 0
158 3 24.940291734855435 41.39794300766843 1.5454399463381838 0 0 0
159 3 28.05782830517744 41.39794300766843 1.5454399463381785 0 0 0
160 3 31.17536487549972 41.397943007668495 1.5454399463382653 0 0 0
161 2 1.5587674574411703 0.8999553064419905 4.663253386996159 0 0 0
162 2 4.67630402776279 0.8999553064421447 4.663253386995009 0 0 0
163 1 3.1175357426013472 1.7999105988865771 3.1043466666666757 0 0 0
164 2 7.793840598084629 0.8999553064419644 4.66325338699527 0 0 0
165 1 6.235072312923782 1.7999105988862647 3.104346666666656 0 0 0
166 1 9.35260888324537 1.7999105988864608 3.104346666666668 0 0 0
167 2 10.911377168406071 0.8999553064420887 4.6632533869952875 0 0 0
168 1 12.470145453566925 1.7999105988863804 3.1043466666666695 0 0 0
169 2 14.028913738727994 0.8999553064418406 4.663253386995178 0 0 0
170 1 15.587682023889114 1.7999105988862913 3.1043466666666752 0 0 0
171 2 17.14645030905006 0.8999553064420857 4.6632533869952955 0 0 0
172 1 18.705218594211416 1.7999105988863657 3.104346666666681 0 0 0
173 2 20.263986879372286 0.8999553064420043 4.663253386995191 0 0 0
174 2 23.38152344969446 0.899955306442014 4.663253386995282 0 0 0
175 1 21.822755164533366 1.7999105988863169 3.104346666666667 0 0 0
176 2 26.499060020016458 0.8999553064418351 4.663253386995155 0 0 0
177 1 24.940291734855474 1.799910598886381 3.104346666666671 0 0 0
178 2 29.616596590338634 0.8999553064420672 4.66325338699525 0 0 0
179 1 28.057828305177555 1.7999105988863118 3.1043466666666735 0 0 0
180 1 31.17536487549972 1.7999105988862938 3.1043466666666566 0 0 0
181 1 1.558767457439864 4.499776445634524 3.1043466666665576 0 0 0
182 1 4.676304027762285 4.499776445634493 3.1043466666666704 0 0 0
183 2 3.117535742601375 3.5998211531899713 4.663253386995239 0 0 0
184 1 7.793840598084606 4.499776445634785 3.1043466666666775 0 0 0
185 2 6.235072312923702 3.599821153190191 4.663253386995118 0 0 0
186 2 9.352608883245457 3.599821153190242 4.663253386995224 0 0 0
187 1 10.911377168406219 4.499776445634847 3.1043466666666664 0 0 0
188 2 12.470145453566996 3.599821153190285 4.663253386995243 0 0 0
189 1 14.028913738727928 4.499776445634775 3.1043466666666797 0 0 0
190 2 15.587682023889025 3.5998211531902973 4.663253386995179 0 0 0
191 1 17.14645030905005 4.4997764456347795 3.1043466666666504 0 0 0
192 2 18.705218594211246 3.599821153190302 4.663253386995168 0 0 0
193 1 20.26398687937225 4.499776445634717 3.1043466666666744 0 0 0
194 1 23.381523449694285 4.499776445634805 3.1043466666666686 0 0 0
195 2 21.8227551645334 3.599821153190302 4.663253386995177 0 0 0
196 1 26.49906002001655 4.4997764456347555 3.1043466666666593 0 0 0
197 2 24.94029173485554 3.5998211531902506 4.66325338699523 0 0 0
198 1 29.616596590338553 4.499776445634767 3.1043466666666757 0 0 0
199 2 28.057828305177495 3.5998211531902817 4.66325338699518 0 0 0
200 2 31.17536487549971 3.599821153190299 4.663253386995169 0 0 0
201 2 1.5587674574408195 6.299686999938859 4.663253386995102 0 0 0
202 2 4.6763040277627335 6.299686999939119 4.6632533869950485 0 0 0
203 1 3.1175357426011443 7.199642292383644 3.1043466666666935 0 0 0
204 2 7.793840598084703 6.299686999938718 4.663253386995279 0 0 0
205 1 6.235072312923881 7.199642292383337 3.1043466666666615 0 0 0
206 1 9.35260888324539 7.199642292383272 3.104346666666675 0 0 0
207 2 10.911377168406077 6.299686999938756 4.6632533869952155 0 0 0
208 1 12.470145453566936 7.1996422923833 3.1043466666666717 0 0 0
209 2 14.02891373872799 6.299686999938793 4.663253386995194 0 0 0
210 1 15.587682023889114 7.199642292383217 3.1043466666666633 0 0 0
211 2 17.14645030905014 6.299686999938804 4.663253386995199 0 0 0
212 1 18.705218594211303 7.199642292383281 3.1043466666666886 0 0 0
213 2 20.263986879372258 6.299686999938811 4.663253386995209 0 0 0
214 2 23.381523449694438 6.299686999938797 4.663253386995202 0 0 0
215 1 21.822755164533458 7.199642292383217 3.1043466666666695 0 0 0
216 2 26.499060020016493 6.299686999938787 4.663253386995196 0 0 0
217 1 24.940291734855435 7.199642292383261 3.1043466666666744 0 0 0
218 2 29.61659659033863 6.299686999938856 4.663253386995167 0 0 0
219 1 28.0578283051775 7.199642292383302 3.104346666666669 0 0 0
220 1 31.175364875499614 7.199642292383245 3.1043466666666735 0 0 0
221 1 1.5587674574423416 9.899508139132577 3.104346666666641 0 0 0
222 1 4.676304027761835 9.899508139130935 3.104346666666663 0 0 0
223 2 3.1175357426014445 8.99955284668728 4.663253386996231 0 0 0
224 1 7.793840598084553 9.89950813913182 3.104346666666673 0 0 0
225 2 6.235072312923187 8.99955284668726 4.663253386995023 0 0 0
226 2 9.35260888324559 8.99955284668713 4.663253386995278 0 0 0
227 1 10.911377168406242 9.899508139131731 3.1043466666666695 0 0 0
228 2 12.470145453567023 8.999552846687175 4.6632533869952315 0 0 0
229 1 14.028913738727917 9.899508139131687 3.1043466666666695 0 0 0
230 2 15.587682023889018 8.999552846687209 4.66325338699518 0 0 0
231 1 17.146450309050095 9.899508139131667 3.104346666666661 0 0 0
232 2 18.705218594211225 8.999552846687209 4.6632533869952 0 0 0
233 1 20.263986879372325 9.899508139131646 3.104346666666668 0 0 0
234 1 23.381523449694285 9.899508139131651 3.1043466666666775 0 0 0
235 2 21.822755164533387 8.999552846687243 4.663253386995162 0 0 0
236 1 26.499060020016614 9.89950813913157 3.104346666666682 0 0 0
237 2 24.94029173485549 8.999552846687212 4.663253386995252 0 0 0
238 1 29.616596590338634 9.899508139131669 3.104346666666672 0 0 0
239 2 28.057828305177452 8.99955284668722 4.663253386995191 0 0 0
240 2 31.175364875499728 8.99955284668722 4.6632533869951365 0 0 0
241 2 1.558767457441655 11.699418693435403 4.663253386996025 0 0 0
242 2 4.676304027762777 11.69941869343567 4.663253386994964 0 0 0
243 1 3.1175357426014947 12.599373985880327 3.1043466666666895 0 0 0
244 2 7.793840598084646 11.699418693435574 4.663253386995232 0 0 0
245 1 6.235072312923697 12.59937398587995 3.1043466666666584 0 0 0
246 1 9.352608883245393 12.599373985880224 3.1043466666666815 0 0 0
247 2 10.91137716840606 11.699418693435607 4.663253386995211 0 0 0
248 1 12.470145453566966 12.599373985880128 3.1043466666666744 0 0 0
249 2 14.028913738727969 11.699418693435607 4.663253386995199 0 0 0
250 1 15.587682023889114 12.599373985879991 3.104346666666687 0 0 0
251 2 17.14645030905005 11.699418693435621 4.663253386995201 0 0 0
252 1 18.705218594211484 12.59937398588007 3.1043466666666784 0 0 0
253 2 20.263986879372194 11.699418693435607 4.66325338699514 0 0 0
254 2 23.381523449694424 11.699418693435607 4.663253386995221 0 0 0
255 1 21.822755164533525 12.599373985880108 3.1043466666666606 0 0 0
256 2 26.499060020016426 11.699418693435655 4.663253386995208 0 0 0
257 1 24.94029173485564 12.599373985880044 3.104346666666678 0 0 0
258 2 29.61659659033861 11.699418693435677 4.663253386995155 0 0 0
259 1 28.057828305177797 12.59937398588007 3.1043466666666633 0 0 0
260 1 31.175364875499533 12.599373985880094 3.1043466666666886 0 0 0
261 1 1.558767457439861 15.299239832628485 3.104346666666587 0 0 0
262 1 4.676304027762295 15.29923983262828 3.104346666666679 0 0 0
263 2 3.117535742601349 14.399284540183842 4.66325338699528 0 0 0
264 1 7.793840598084618 15.299239832628519 3.1043466666666673 0 0 0
265 2 6.235072312923689 14.399284540184073 4.663253386995135 0 0 0
266 2 9.352608883245491 14.399284540184082 4.663253386995232 0 0 0
267 1 10.911377168406162 15.29923983262869 3.104346666666667 0 0 0
268 2 12.470145453567012 14.39928454018409 4.663253386995203 0 0 0
269 1 14.028913738727908 15.2992398326285 3.1043466666666575 0 0 0
270 2 15.58768202388899 14.39928454018413 4.663253386995202 0 0 0
271 1 17.14645030905017 15.299239832628587 3.10434666666666 0 0 0
272 2 18.70521859421122 14.399284540184121 4.663253386995143 0 0 0
273 1 20.263986879372126 15.299239832628539 3.104346666666664 0 0 0
274 1 23.381523449694278 15.299239832628452 3.1043466666666664 0 0 0
275 2 21.82275516453347 14.399284540184114 4.663253386995147 0 0 0
276 1 26.499060020016515 15.299239832628533 3.1043466666666624 0 0 0
277 2 24.940291734855435 14.39928454018409 4.663253386995226 0 0 0
278 1 29.616596590338723 15.299239832628533 3.104346666666665 0 0 0
279 2 28.057828305177512 14.39928454018409 4.663253386995173 0 0 0
280 2 31.175364875499646 14.399284540184109 4.663253386995158 0 0 0
281 2 1.5587674574408519 17.0991503869326 4.663253386995115 0 0 0
282 2 4.676304027762724 17.099150386932813 4.663253386995034 0 0 0
283 1 3.1175357426011403 17.999105679377312 3.1043466666666935 0 0 0
284 2 7.793840598084703 17.099150386932376 4.6632533869952955 0 0 0
285 1 6.235072312923867 17.999105679377156 3.1043466666666553 0 0 0
286 1 9.352608883245365 17.99910567937723 3.1043466666666695 0 0 0
287 2 10.911377168406094 17.09915038693237 4.663253386995264 0 0 0
288 1 12.470145453566944 17.999105679377134 3.1043466666666855 0 0 0
289 2 14.028913738728 17.099150386932465 4.663253386995247 0 0 0
290 1 15.587682023889139 17.99910567937706 3.10434666666667 0 0 0
291 2 17.146450309050028 17.09915038693247 4.663253386995221 0 0 0
292 1 18.705218594211452 17.999105679377113 3.1043466666666784 0 0 0
293 2 20.263986879372307 17.099150386932497 4.663253386995149 0 0 0
294 2 23.381523449694424 17.09915038693251 4.663253386995275 0 0 0
295 1 21.822755164533444 17.999105679377067 3.1043466666666704 0 0 0
296 2 26.49906002001649 17.099150386932504 4.663253386995228 0 0 0
297 1 24.940291734855602 17.99910567937715 3.1043466666666704 0 0 0
298 2 29.61659659033862 17.099150386932504 4.663253386995209 0 0 0
299 1 28.0578283051775 17.999105679377127 3.1043466666666792 0 0 0
300 1 31.175364875499675 17.999105679377127 3.104346666666685 0 0 0
301 1 1.5587674574422852 20.698971526126364 3.1043466666666095 0 0 0
302 1 4.676304027761837 20.698971526124662 3.10434666666667 0 0 0
303 2 3.1175357426014485 19.799016233681076 4.663253386996214 0 0 0
304 1 7.79384059808453 20.69897152612554 3.104346666666684 0 0 0
305 2 6.235072312923148 19.799016233680987 4.663253386994978 0 0 0
306 2 9.352608883245644 19.79901623368085 4.663253386995217 0 0 0
307 1 10.911377168406265 20.6989715261254 3.1043466666666664 0 0 0
308 2 12.470145453567023 19.79901623368087 4.663253386995181 0 0 0
309 1 14.028913738727937 20.69897152612551 3.1043466666666633 0 0 0
310 2 15.587682023889046 19.79901623368093 4.663253386995146 0 0 0
311 1 17.146450309049992 20.698971526125362 3.1043466666666713 0 0 0
312 2 18.705218594211214 19.79901623368093 4.663253386995199 0 0 0
313 1 20.26398687937225 20.698971526125327 3.104346666666667 0 0 0
314 1 23.381523449694324 20.698971526125398 3.1043466666666717 0 0 0
315 2 21.82275516453341 19.79901623368091 4.66325338699517 0 0 0
316 1 26.499060020016493 20.698971526125273 3.1043466666666704 0 0 0
317 2 24.94029173485549 19.799016233680952 4.6632533869952475 0 0 0
318 1 29.616596590338702 20.698971526125355 3.1043466666666664 0 0 0
319 2 28.057828305177576 19.79901623368093 4.663253386995144 0 0 0
320 2 31.175364875499707 19.799016233680966 4.66325338699509 0 0 0
321 2 1.5587674574413952 22.498882080429286 4.66325338699581 0 0 0
322 2 4.676304027762732 22.49888208042952 4.663253386995 0 0 0
323 1 3.1175357426013717 23.398837372874162 3.104346666666678 0 0 0
324 2 7.793840598084625 22.498882080429354 4.663253386995279 0 0 0
325 1 6.235072312923731 23.398837372873942 3.104346666666644 0 0 0
326 1 9.352608883245413 23.398837372874095 3.1043466666666726 0 0 0
327 2 10.911377168406048 22.498882080429397 4.663253386995244 0 0 0
328 1 12.470145453566987 23.39883737287401 3.104346666666679 0 0 0
329 2 14.028913738727994 22.498882080429325 4.6632533869952155 0 0 0
330 1 15.58768202388907 23.398837372873928 3.1043466666666673 0 0 0
331 2 17.14645030905014 22.498882080429325 4.663253386995216 0 0 0
332 1 18.705218594211225 23.398837372874034 3.1043466666666766 0 0 0
333 2 20.263986879372307 22.49888208042941 4.663253386995209 0 0 0
334 2 23.381523449694356 22.49888208042941 4.663253386995239 0 0 0
335 1 21.82275516453341 23.398837372873913 3.104346666666658 0 0 0
336 2 26.49906002001655 22.49888208042941 4.66325338699522 0 0 0
337 1 24.94029173485556 23.398837372874024 3.104346666666673 0 0 0
338 2 29.6165965903386 22.498882080429425 4.663253386995172 0 0 0
339 1 28.0578283051775 23.398837372873846 3.1043466666666624 0 0 0
340 1 31.17536487549972 23.39883737287378 3.1043466666666895 0 0 0
341 1 1.5587674574399972 26.09870321962208 3.104346666666615 0 0 0
342 1 4.676304027762119 26.098703219622024 3.1043466666666815 0 0 0
343 2 3.1175357426013384 25.198747927177408 4.6632533869953035 0 0 0
344 1 7.793840598084632 26.098703219622436 3.104346666666679 0 0 0
345 2 6.235072312923587 25.19874792717783 4.663253386995089 0 0 0
346 2 9.352608883245457 25.198747927177795 4.663253386995221 0 0 0
347 1 10.911377168406185 26.098703219622465 3.1043466666666713 0 0 0
348 2 12.470145453566955 25.198747927177752 4.663253386995223 0 0 0
349 1 14.028913738727985 26.098703219622355 3.104346666666659 0 0 0
350 2 15.587682023888984 25.19874792717783 4.6632533869951756 0 0 0
351 1 17.146450309050174 26.098703219622216 3.1043466666666624 0 0 0
352 2 18.705218594211193 25.198747927177767 4.6632533869951365 0 0 0
353 1 20.26398687937225 26.098703219622177 3.104346666666669 0 0 0
354 1 23.38152344969437 26.09870321962234 3.1043466666666744 0 0 0
355 2 21.822755164533458 25.198747927177795 4.663253386995118 0 0 0
356 1 26.499060020016525 26.098703219622326 3.1043466666666766 0 0 0
357 2 24.940291734855517 25.198747927177767 4.663253386995164 0 0 0
358 1 29.616596590338645 26.0987032196223 3.104346666666682 0 0 0
359 2 28.0578283051775 25.19874792717778 4.6632533869951835 0 0 0
360 2 31.17536487549972 25.19874792717785 4.663253386995154 0 0 0
361 2 1.5587674574418666 27.89861377392626 4.6632533869951605 0 0 0
362 2 4.676304027762684 27.898613773926492 4.6632533869949215 0 0 0
363 1 3.11753574260197 28.798569066370888 3.1043466666666797 0 0 0
364 2 7.79384059808449 27.898613773926275 4.663253386995226 0 0 0
365 1 6.235072312923635 28.798569066370916 3.1043466666666424 0 0 0
366 1 9.35260888324527 28.79856906637067 3.10434666666666 0 0 0
367 2 10.911377168406043 27.89861377392615 4.663253386995187 0 0 0
368 1 12.470145453567024 28.798569066370845 3.1043466666666775 0 0 0
369 2 14.02891373872796 27.89861377392615 4.663253386995196 0 0 0
370 1 15.587682023889075 28.798569066370778 3.1043466666666775 0 0 0
371 2 17.14645030905014 27.89861377392633 4.663253386995186 0 0 0
372 1 18.705218594211328 28.7985690663706 3.1043466666666606 0 0 0
373 2 20.263986879372297 27.89861377392633 4.6632533869951995 0 0 0
374 2 23.38152344969438 27.898613773926314 4.66325338699515 0 0 0
375 1 21.822755164533387 28.798569066370543 3.1043466666666624 0 0 0
376 2 26.499060020016437 27.89861377392626 4.663253386995199 0 0 0
377 1 24.940291734855602 28.798569066370575 3.1043466666666704 0 0 0
378 2 29.6165965903386 27.89861377392629 4.663253386995217 0 0 0
379 1 28.057828305177733 28.798569066370863 3.104346666666665 0 0 0
380 1 31.1753648754997 28.798569066370753 3.1043466666666997 0 0 0
381 1 1.5587674574404622 31.49843491311915 3.1043466666667037 0 0 0
382 1 4.676304027762421 31.498434913118697 3.104346666666681 0 0 0
383 2 3.117535742601918 30.598479620674617 4.6632533869956605 0 0 0
384 1 7.793840598084591 31.498434913119137 3.1043466666666966 0 0 0
385 2 6.235072312923635 30.598479620674468 4.663253386995141 0 0 0
386 2 9.352608883245432 30.59847962067466 4.663253386995299 0 0 0
387 1 10.911377168406151 31.4984349131193 3.1043466666666637 0 0 0
388 2 12.47014545356695 30.59847962067466 4.6632533869952075 0 0 0
389 1 14.028913738727985 31.498434913119205 3.10434666666668 0 0 0
390 2 15.587682023889009 30.598479620674617 4.6632533869951835 0 0 0
391 1 17.146450309050017 31.498434913119407 3.1043466666666784 0 0 0
392 2 18.705218594211278 30.598479620674674 4.6632533869952315 0 0 0
393 1 20.263986879372325 31.49843491311922 3.104346666666673 0 0 0
394 1 23.38152344969438 31.49843491311915 3.104346666666658 0 0 0
395 2 21.822755164533387 30.59847962067474 4.66325338699515 0 0 0
396 1 26.499060020016504 31.498434913119137 3.104346666666676 0 0 0
397 2 24.940291734855414 30.59847962067474 4.663253386995272 0 0 0
398 1 29.61659659033877 31.49843491311919 3.1043466666666633 0 0 0
399 2 28.0578283051775 30.598479620674592 4.663253386995206 0 0 0
400 2 31.17536487549971 30.598479620674713 4.663253386995184 0 0 0
401 2 1.5587674574398143 33.298345467423985 4.663253386994963 0 0 0
402 2 4.676304027762682 33.298345467423424 4.6632533869950095 0 0 0
403 1 3.1175357426015817 34.19830075986825 3.1043466666666766 0 0 0
404 2 7.79384059808466 33.29834546742298 4.6632533869953265 0 0 0
405 1 6.235072312923955 34.19830075986764 3.1043466666666966 0 0 0
406 1 9.352608883245276 34.198300759867884 3.104346666666664 0 0 0
407 2 10.911377168406071 33.298345467423076 4.663253386995222 0 0 0
408 1 12.470145453567003 34.19830075986776 3.104346666666675 0 0 0
409 2 14.028913738727994 33.29834546742311 4.6632533869951835 0 0 0
410 1 15.587682023889036 34.198300759867735 3.1043466666666553 0 0 0
411 2 17.146450309050056 33.29834546742311 4.663253386995161 0 0 0
412 1 18.70521859421155 34.198300759867436 3.1043466666666664 0 0 0
413 2 20.263986879372098 33.29834546742312 4.663253386995111 0 0 0
414 2 23.381523449694356 33.29834546742312 4.663253386995267 0 0 0
415 1 21.822755164533536 34.198300759867884 3.104346666666678 0 0 0
416 2 26.499060020016493 33.29834546742312 4.663253386995246 0 0 0
417 1 24.940291734855467 34.198300759867955 3.1043466666666775 0 0 0
418 2 29.61659659033858 33.29834546742311 4.663253386995135 0 0 0
419 1 28.057828305177598 34.19830075986763 3.1043466666666664 0 0 0
420 1 31.175364875499742 34.19830075986779 3.1043466666666886 0 0 0
421 1 1.5587674574404433 36.89816660661663 3.1043466666667827 0 0 0
422 1 4.676304027762128 36.8981666066156 3.1043466666666615 0 0 0
423 2 3.1175357426014254 35.9982113141716 4.663253386996331 0 0 0
424 1 7.793840598084594 36.8981666066162 3.1043466666667046 0 0 0
425 2 6.235072312923322 35.99821131417139 4.663253386994979 0 0 0
426 2 9.352608883245567 35.99821131417136 4.663253386995206 0 0 0
427 1 10.911377168406247 36.898166606616314 3.1043466666666553 0 0 0
428 2 12.470145453567023 35.99821131417141 4.663253386995278 0 0 0
429 1 14.02891373872805 36.898166606616314 3.1043466666666735 0 0 0
430 2 15.587682023888982 35.99821131417141 4.663253386995186 0 0 0
431 1 17.146450309050184 36.89816660661604 3.104346666666681 0 0 0
432 2 18.705218594211246 35.9982113141717 4.663253386995182 0 0 0
433 1 20.26398687937222 36.89816660661568 3.104346666666664 0 0 0
434 1 23.38152344969438 36.898166606615874 3.1043466666666606 0 0 0
435 2 21.822755164533387 35.998211314171584 4.663253386995058 0 0 0
436 1 26.49906002001665 36.89816660661612 3.1043466666666735 0 0 0
437 2 24.940291734855414 35.99821131417141 4.663253386995148 0 0 0
438 1 29.616596590338713 36.898166606616094 3.104346666666672 0 0 0
439 2 28.057828305177477 35.99821131417161 4.663253386995151 0 0 0
440 2 31.17536487549971 35.998211314171506 4.663253386995118 0 0 0
441 2 1.5587674574415091 38.69807716091962 4.663253386995685 0 0 0
442 2 4.676304027762825 38.69807716092007 4.663253386994841 0 0 0