LAMMPS data file via write_data, version 2 Aug 2023, timestep = 1516, units = metal

47600 atoms
3 atom types

0 1558.770479816574 xlo xhi
0 86.39583404995983 ylo yhi
0 50 zlo zhi
0 0 0 xy xz yz

Masses

1 95.94
2 32.065
3 32.065

Atoms # atomic

1 3 1.558769652093914 0.899956633519358 1.5454401379954452 0 0 0
2 3 4.6763106117282085 0.8999566335191221 1.545440137995147 0 0 0
3 3 7.793851571360671 0.8999566335190156 1.5454401379954126 0 0 0
4 3 10.911392530993654 0.8999566335190545 1.5454401379954201 0 0 0
5 3 14.028933490626793 0.8999566335191042 1.5454401379954357 0 0 0
6 3 17.14647445025997 0.8999566335191251 1.5454401379954217 0 0 0
7 3 20.26401540989302 0.8999566335190755 1.5454401379954223 0 0 0
8 3 23.381556369526198 0.899956633519111 1.5454401379954568 0 0 0
9 3 26.499097329159355 0.8999566335191066 1.5454401379954121 0 0 0
10 3 29.61663828879264 0.8999566335190892 1.5454401379954292 0 0 0
11 3 32.73417924842574 0.8999566335191401 1.5454401379954532 0 0 0
12 3 35.851720208058794 0.8999566335190271 1.5454401379953986 0 0 0
13 3 38.96926116769184 0.8999566335190633 1.545440137995471 0 0 0
14 3 42.0868021273251 0.8999566335191511 1.5454401379954998 0 0 0
15 3 3.11754013191163 3.5998264475804094 1.5454401379949512 0 0 0
16 3 6.23508109154523 3.5998264475801403 1.545440137995204 0 0 0
17 3 9.352622051177134 3.599826447580248 1.545440137995315 0 0 0
18 3 12.47016301081007 3.5998264475803117 1.5454401379954288 0 0 0
19 3 15.587703970443357 3.5998264475803183 1.5454401379953941 0 0 0
20 3 18.705244930076518 3.5998264475802895 1.5454401379953953 0 0 0
21 3 21.82278588970967 3.599826447580332 1.545440137995415 0 0 0
22 3 24.940326849342828 3.5998264475802926 1.5454401379953953 0 0 0
23 3 28.05786780897602 3.59982644758032 1.5454401379954261 0 0 0
24 3 31.175408768609167 3.59982644758026 1.5454401379953941 0 0 0
25 3 34.29294972824233 3.5998264475803183 1.5454401379953675 0 0 0
26 3 37.41049068787535 3.59982644758031 1.5454401379954317 0 0 0
27 3 40.52803164750847 3.599826447580296 1.5454401379954164 0 0 0
28 3 1.5587696520938663 6.299696261641703 1.5454401379955909 0 0 0
29 3 4.676310611728175 6.299696261641415 1.5454401379951752 0 0 0
30 3 7.793851571360671 6.299696261641402 1.5454401379953835 0 0 0
31 3 10.911392530993632 6.2996962616413885 1.5454401379954532 0 0 0
32 3 14.02893349062682 6.2996962616414365 1.545440137995402 0 0 0
33 3 17.14647445025997 6.299696261641412 1.5454401379953904 0 0 0
34 3 20.26401540989302 6.299696261641443 1.545440137995432 0 0 0
35 3 23.381556369526173 6.299696261641416 1.5454401379954363 0 0 0
36 3 26.499097329159365 6.2996962616414365 1.545440137995415 0 0 0
37 3 29.61663828879257 6.299696261641409 1.5454401379954268 0 0 0
38 3 32.73417924842558 6.299696261641412 1.5454401379953884 0 0 0
39 3 35.85172020805869 6.2996962616414525 1.5454401379954297 0 0 0
40 3 38.96926116769184 6.299696261641401 1.5454401379953808 0 0 0
41 3 42.086802127325164 6.299696261641477 1.5454401379954912 0 0 0
42 3 3.117540131911604 8.999566075702715 1.5454401379949658 0 0 0
43 3 6.235081091545186 8.999566075702443 1.5454401379952458 0 0 0
44 3 9.352622051177116 8.999566075702553 1.5454401379953484 0 0 0
45 3 12.47016301081008 8.99956607570261 1.5454401379954406 0 0 0
46 3 15.587703970443373 8.99956607570257 1.545440137995413 0 0 0
47 3 18.705244930076518 8.999566075702642 1.5454401379954075 0 0 0
48 3 21.822785889709614 8.99956607570258 1.545440137995409 0 0 0
49 3 24.940326849342807 8.999566075702617 1.545440137995418 0 0 0
50 3 28.05786780897601 8.999566075702598 1.5454401379954423 0 0 0
51 3 31.175408768609106 8.999566075702631 1.5454401379954223 0 0 0
52 3 34.292949728242256 8.999566075702594 1.5454401379954326 0 0 0
53 3 37.41049068787535 8.999566075702658 1.5454401379954694 0 0 0
54 3 40.52803164750847 8.999566075702553 1.545440137995378 0 0 0
55 3 1.5587696520938863 11.699435889764144 1.5454401379955898 0 0 0
56 3 4.676310611728172 11.699435889763851 1.5454401379951797 0 0 0
57 3 7.793851571360671 11.699435889763842 1.545440137995383 0 0 0
58 3 10.911392530993643 11.699435889763818 1.5454401379954583 0 0 0
59 3 14.028933490626784 11.699435889763858 1.5454401379954046 0 0 0
60 3 17.146474450259944 11.699435889763842 1.5454401379954104 0 0 0
61 3 20.26401540989303 11.699435889763818 1.5454401379954206 0 0 0
62 3 23.381556369526198 11.699435889763858 1.5454401379954146 0 0 0
63 3 26.499097329159355 11.699435889763851 1.5454401379954548 0 0 0
64 3 29.616638288792597 11.69943588976388 1.545440137995392 0 0 0
65 3 32.73417924842558 11.699435889763842 1.5454401379954164 0 0 0
66 3 35.85172020805875 11.699435889763866 1.5454401379954177 0 0 0
67 3 38.96926116769189 11.699435889763837 1.5454401379954033 0 0 0
68 3 42.0868021273251 11.699435889763883 1.5454401379954832 0 0 0
69 3 3.1175401319115936 14.39930570382525 1.5454401379949594 0 0 0
70 3 6.235081091545202 14.399305703824936 1.5454401379952418 0 0 0
71 3 9.352622051177118 14.399305703825052 1.5454401379953464 0 0 0
72 3 12.47016301081009 14.3993057038251 1.545440137995449 0 0 0
73 3 15.587703970443357 14.39930570382513 1.5454401379954246 0 0 0
74 3 18.705244930076518 14.399305703825075 1.545440137995409 0 0 0
75 3 21.822785889709635 14.39930570382513 1.5454401379954252 0 0 0
76 3 24.940326849342757 14.399305703825068 1.5454401379954137 0 0 0
77 3 28.05786780897602 14.399305703825068 1.545440137995422 0 0 0
78 3 31.175408768609106 14.39930570382517 1.5454401379954001 0 0 0
79 3 34.292949728242256 14.399305703825068 1.545440137995393 0 0 0
80 3 37.41049068787535 14.39930570382513 1.5454401379954936 0 0 0
81 3 40.52803164750847 14.399305703825068 1.5454401379954001 0 0 0
82 3 1.5587696520938772 17.099175517886756 1.5454401379956038 0 0 0
83 3 4.676310611728183 17.099175517886454 1.5454401379951794 0 0 0
84 3 7.793851571360663 17.0991755178864 1.545440137995386 0 0 0
85 3 10.911392530993632 17.099175517886394 1.5454401379954634 0 0 0
86 3 14.02893349062682 17.099175517886454 1.5454401379954021 0 0 0
87 3 17.146474450259955 17.09917551788643 1.5454401379953875 0 0 0
88 3 20.26401540989301 17.099175517886408 1.54544013799541 0 0 0
89 3 23.38155636952625 17.099175517886408 1.5454401379954474 0 0 0
90 3 26.499097329159376 17.099175517886408 1.5454401379953977 0 0 0
91 3 29.61663828879262 17.099175517886387 1.5454401379954084 0 0 0
92 3 32.73417924842574 17.099175517886408 1.5454401379954699 0 0 0
93 3 35.85172020805882 17.09917551788636 1.5454401379953704 0 0 0
94 3 38.969261167691954 17.099175517886373 1.545440137995416 0 0 0
95 3 42.08680212732519 17.099175517886447 1.545440137995471 0 0 0
96 3 3.117540131911616 19.799045331947767 1.5454401379949627 0 0 0
97 3 6.235081091545233 19.799045331947493 1.5454401379952554 0 0 0
98 3 9.352622051177134 19.799045331947617 1.545440137995329 0 0 0
99 3 12.470163010810117 19.79904533194766 1.5454401379954261 0 0 0
100 3 15.587703970443362 19.79904533194766 1.5454401379954257 0 0 0
101 3 18.705244930076574 19.79904533194772 1.5454401379954201 0 0 0
102 3 21.82278588970968 19.799045331947625 1.5454401379954008 0 0 0
103 3 24.940326849342828 19.79904533194766 1.5454401379954112 0 0 0
104 3 28.057867808975978 19.799045331947646 1.5454401379954514 0 0 0
105 3 31.175408768609167 19.799045331947625 1.5454401379953835 0 0 0
106 3 34.2929497282421 19.79904533194763 1.5454401379953988 0 0 0
107 3 37.41049068787535 19.79904533194766 1.545440137995451 0 0 0
108 3 40.52803164750847 19.79904533194764 1.5454401379954132 0 0 0
109 3 1.558769652093909 22.498915146009242 1.545440137995542 0 0 0
110 3 4.676310611728158 22.498915146008947 1.5454401379951788 0 0 0
111 3 7.793851571360678 22.498915146008866 1.5454401379953806 0 0 0
112 3 10.911392530993664 22.498915146008905 1.5454401379954732 0 0 0
113 3 14.028933490626851 22.49891514600891 1.5454401379954095 0 0 0
114 3 17.14647445025997 22.49891514600891 1.5454401379953904 0 0 0
115 3 20.264015409893076 22.498915146008866 1.545440137995393 0 0 0
116 3 23.38155636952623 22.49891514600893 1.545440137995423 0 0 0
117 3 26.499097329159387 22.49891514600891 1.5454401379954292 0 0 0
118 3 29.616638288792597 22.49891514600891 1.5454401379954132 0 0 0
119 3 32.73417924842558 22.498915146008894 1.5454401379953993 0 0 0
120 3 35.85172020805869 22.49891514600888 1.5454401379954334 0 0 0
121 3 38.96926116769186 22.498915146008866 1.5454401379953369 0 0 0
122 3 42.086802127325164 22.498915146008947 1.5454401379954104 0 0 0
123 3 3.1175401319116043 25.19878496007026 1.5454401379949931 0 0 0
124 3 6.235081091545202 25.19878496006997 1.5454401379952614 0 0 0
125 3 9.352622051177162 25.198784960070064 1.5454401379953582 0 0 0
126 3 12.470163010810106 25.198784960070096 1.5454401379954428 0 0 0
127 3 15.587703970443389 25.198784960070096 1.545440137995411 0 0 0
128 3 18.705244930076518 25.19878496007012 1.545440137995422 0 0 0
129 3 21.822785889709614 25.198784960070096 1.5454401379954326 0 0 0
130 3 24.940326849342746 25.19878496007012 1.5454401379954368 0 0 0
131 3 28.057867808976 25.198784960070096 1.5454401379954386 0 0 0
132 3 31.175408768609167 25.19878496007012 1.5454401379954246 0 0 0
133 3 34.292949728242306 25.198784960070103 1.5454401379954108 0 0 0
134 3 37.41049068787535 25.198784960070164 1.5454401379954819 0 0 0
135 3 40.52803164750847 25.198784960070096 1.5454401379953797 0 0 0
136 3 1.558769652094024 27.898654774131643 1.5454401379955107 0 0 0
137 3 4.676310611728203 27.8986547741315 1.545440137995201 0 0 0
138 3 7.7938515713606344 27.89865477413142 1.5454401379953833 0 0 0
139 3 10.91139253099363 27.898654774131337 1.5454401379954756 0 0 0
140 3 14.028933490626814 27.89865477413142 1.5454401379954301 0 0 0
141 3 17.146474450259912 27.898654774131405 1.5454401379954437 0 0 0
142 3 20.26401540989303 27.898654774131405 1.5454401379954268 0 0 0
143 3 23.381556369526198 27.89865477413142 1.5454401379954064 0 0 0
144 3 26.499097329159355 27.89865477413139 1.5454401379954936 0 0 0
145 3 29.616638288792597 27.89865477413142 1.5454401379954066 0 0 0
146 3 32.73417924842574 27.898654774131437 1.5454401379954479 0 0 0
147 3 35.85172020805891 27.898654774131405 1.5454401379953198 0 0 0
148 3 38.969261167692004 27.898654774131405 1.5454401379954719 0 0 0
149 3 42.086802127325164 27.89865477413142 1.5454401379954914 0 0 0
150 3 3.1175401319116895 30.598524588192745 1.5454401379949647 0 0 0
151 3 6.23508109154521 30.598524588192554 1.5454401379952598 0 0 0
152 3 9.3526220511771 30.59852458819257 1.5454401379953298 0 0 0
153 3 12.470163010810111 30.598524588192653 1.5454401379954326 0 0 0
154 3 15.587703970443357 30.598524588192607 1.5454401379954095 0 0 0
155 3 18.705244930076486 30.59852458819262 1.5454401379954397 0 0 0
156 3 21.822785889709614 30.598524588192653 1.5454401379954315 0 0 0
157 3 24.940326849342828 30.598524588192607 1.5454401379954414 0 0 0
158 3 28.05786780897601 30.598524588192607 1.5454401379954372 0 0 0
159 3 31.175408768609167 30.598524588192607 1.5454401379954223 0 0 0
160 3 34.29294972824214 30.598524588192653 1.5454401379954086 0 0 0
161 3 37.41049068787535 30.59852458819269 1.545440137995459 0 0 0
162 3 40.52803164750847 30.598524588192593 1.545440137995458 0 0 0
163 3 1.5587696520939056 33.29839440225418 1.5454401379954867 0 0 0
164 3 4.6763106117282 33.29839440225392 1.5454401379951634 0 0 0
165 3 7.793851571360675 33.29839440225389 1.5454401379953626 0 0 0
166 3 10.911392530993632 33.29839440225377 1.5454401379954408 0 0 0
167 3 14.028933490626773 33.29839440225386 1.5454401379954035 0 0 0
168 3 17.146474450259902 33.298394402253805 1.5454401379953893 0 0 0
169 3 20.264015409892963 33.298394402253805 1.5454401379954115 0 0 0
170 3 23.381556369526198 33.29839440225388 1.545440137995402 0 0 0
171 3 26.499097329159355 33.29839440225382 1.5454401379954248 0 0 0
172 3 29.616638288792597 33.29839440225393 1.5454401379953622 0 0 0
173 3 32.73417924842574 33.298394402253805 1.5454401379954126 0 0 0
174 3 35.85172020805888 33.29839440225392 1.5454401379953477 0 0 0
175 3 38.969261167692004 33.298394402253805 1.5454401379954108 0 0 0
176 3 42.08680212732519 33.29839440225395 1.5454401379954308 0 0 0
177 3 3.1175401319115914 35.99826421631536 1.5454401379950702 0 0 0
178 3 6.235081091545199 35.99826421631493 1.5454401379952913 0 0 0
179 3 9.352622051177123 35.99826421631504 1.5454401379953842 0 0 0
180 3 12.47016301081009 35.99826421631506 1.5454401379954605 0 0 0
181 3 15.587703970443357 35.998264216315086 1.5454401379954508 0 0 0
182 3 18.705244930076518 35.99826421631504 1.5454401379954306 0 0 0
183 3 21.822785889709625 35.99826421631511 1.5454401379954514 0 0 0
184 3 24.940326849342828 35.998264216314986 1.5454401379954563 0 0 0
185 3 28.057867808975978 35.998264216314986 1.5454401379954312 0 0 0
186 3 31.175408768609117 35.99826421631506 1.5454401379954368 0 0 0
187 3 34.29294972824214 35.998264216315135 1.5454401379954195 0 0 0
188 3 37.41049068787535 35.99826421631513 1.545440137995423 0 0 0
189 3 40.52803164750847 35.998264216315015 1.5454401379954643 0 0 0
190 3 1.5587696520938648 38.69813403037673 1.5454401379956584 0 0 0
191 3 4.676310611728177 38.698134030376416 1.5454401379951863 0 0 0
192 3 7.793851571360624 38.69813403037628 1.5454401379953906 0 0 0
193 3 10.911392530993632 38.69813403037626 1.5454401379954752 0 0 0
194 3 14.028933490626793 38.69813403037628 1.5454401379954412 0 0 0
195 3 17.14647445026 38.69813403037626 1.5454401379954223 0 0 0
196 3 20.264015409893076 38.69813403037632 1.5454401379954597 0 0 0
197 3 23.381556369526255 38.69813403037634 1.545440137995467 0 0 0
198 3 26.499097329159365 38.69813403037631 1.545440137995446 0 0 0
199 3 29.616638288792597 38.69813403037634 1.5454401379954181 0 0 0
200 3 32.73417924842574 38.69813403037631 1.5454401379954512 0 0 0
201 3 35.85172020805888 38.69813403037631 1.545440137995421 0 0 0
202 3 38.969261167692004 38.69813403037631 1.5454401379954532 0 0 0
203 3 42.08680212732519 38.69813403037632 1.545440137995453 0 0 0
204 3 3.117540131911569 41.398003844437824 1.5454401379950018 0 0 0
205 3 6.235081091545165 41.3980038444374 1.5454401379952525 0 0 0
206 3 9.352622051177113 41.39800384443744 1.5454401379953553 0 0 0
207 3 12.470163010810142 41.39800384443759 1.5454401379954614 0 0 0
208 3 15.587703970443405 41.39800384443758 1.5454401379954372 0 0 0
209 3 18.705244930076574 41.398003844437596 1.5454401379954281 0 0 0
210 3 21.822785889709603 41.3980038444376 1.5454401379954668 0 0 0
211 3 24.94032684934281 41.39800384443758 1.5454401379954463 0 0 0
212 3 28.05786780897602 41.39800384443758 1.5454401379954652 0 0 0
213 3 31.175408768609106 41.39800384443759 1.545440137995412 0 0 0
214 3 34.292949728242256 41.398003844437596 1.5454401379953886 0 0 0
215 3 37.41049068787535 41.3980038444376 1.5454401379955245 0 0 0
216 3 40.52803164750847 41.39800384443758 1.5454401379954399 0 0 0
217 2 1.5587696520940506 0.899956633519266 4.663253195337995 0 0 0
218 2 4.676310611728212 0.8999566335191307 4.663253195338185 0 0 0
219 1 3.1175401319118383 1.7999132344827997 3.104346666666681 0 0 0
220 2 7.793851571360644 0.8999566335190237 4.663253195337945 0 0 0
221 1 6.235081091544557 1.7999132344830735 3.1043466666666553 0 0 0
222 1 9.352622051177173 1.7999132344829598 3.1043466666666784 0 0 0
223 2 10.911392530993654 0.8999566335190617 4.663253195337925 0 0 0
224 1 12.470163010810209 1.799913234482919 3.1043466666666717 0 0 0
225 2 14.02893349062679 0.8999566335191211 4.663253195337915 0 0 0
226 1 15.587703970443373 1.7999132344829485 3.104346666666676 0 0 0
227 2 17.14647445025997 0.8999566335191366 4.663253195337948 0 0 0
228 1 18.705244930076518 1.799913234482948 3.1043466666666872 0 0 0
229 2 20.26401540989302 0.8999566335190836 4.663253195337948 0 0 0
230 2 23.381556369526198 0.8999566335191119 4.6632531953378855 0 0 0
231 1 21.82278588970959 1.7999132344829563 3.104346666666667 0 0 0
232 2 26.499097329159355 0.8999566335191042 4.6632531953379335 0 0 0
233 1 24.940326849342757 1.7999132344829334 3.1043466666666744 0 0 0
234 2 29.61663828879262 0.8999566335190892 4.6632531953379255 0 0 0
235 1 28.05786780897599 1.7999132344829065 3.104346666666675 0 0 0
236 1 31.175408768609167 1.799913234482965 3.1043466666666775 0 0 0
237 2 32.7341792484257 0.899956633519134 4.663253195337918 0 0 0
238 1 34.292949728242256 1.799913234482955 3.10434666666667 0 0 0
239 2 35.851720208058794 0.8999566335190292 4.663253195337978 0 0 0
240 1 37.41049068787517 1.7999132344829127 3.104346666666684 0 0 0
241 2 38.96926116769186 0.8999566335190625 4.663253195337892 0 0 0
242 1 40.52803164750847 1.7999132344829452 3.1043466666666806 0 0 0
243 2 42.08680212732514 0.8999566335191389 4.663253195337862 0 0 0
244 1 1.5587696520932928 4.499783048543477 3.104346666666901 0 0 0
245 1 4.676310611728313 4.49978304854405 3.104346666666637 0 0 0
246 2 3.1175401319118783 3.5998264475802793 4.663253195338538 0 0 0
247 1 7.793851571361033 4.49978304854419 3.1043466666666744 0 0 0
248 2 6.235081091545207 3.599826447580184 4.663253195338105 0 0 0
249 2 9.35262205117714 3.59982644758025 4.663253195338047 0 0 0
250 1 10.911392530993563 4.49978304854402 3.1043466666666806 0 0 0
251 2 12.47016301081009 3.59982644758032 4.663253195337924 0 0 0
252 1 14.028933490626722 4.499783048544073 3.1043466666666713 0 0 0
253 2 15.587703970443357 3.599826447580332 4.663253195337952 0 0 0
254 1 17.146474450259912 4.499783048544098 3.1043466666666752 0 0 0
255 2 18.705244930076518 3.5998264475802997 4.663253195337947 0 0 0
256 1 20.26401540989301 4.499783048544092 3.1043466666666744 0 0 0
257 1 23.38155636952622 4.499783048544021 3.104346666666678 0 0 0
258 2 21.82278588970967 3.599826447580332 4.6632531953379335 0 0 0
259 1 26.499097329159355 4.499783048544078 3.1043466666666815 0 0 0
260 2 24.940326849342828 3.5998264475802806 4.663253195337962 0 0 0
261 1 29.61663828879257 4.49978304854405 3.10434666666668 0 0 0
262 2 28.05786780897601 3.59982644758031 4.663253195337937 0 0 0
263 2 31.175408768609167 3.599826447580286 4.6632531953379495 0 0 0
264 1 32.73417924842567 4.499783048544063 3.1043466666666446 0 0 0
265 2 34.292949728242306 3.599826447580317 4.663253195338 0 0 0
266 1 35.85172020805882 4.499783048544098 3.1043466666667086 0 0 0
267 2 37.41049068787535 3.5998264475802926 4.663253195337947 0 0 0
268 1 38.969261167691954 4.499783048544105 3.10434666666668 0 0 0
269 2 40.52803164750847 3.599826447580298 4.663253195337947 0 0 0
270 1 42.0868021273251 4.499783048544024 3.1043466666666695 0 0 0
271 2 1.5587696520940317 6.299696261641816 4.663253195338011 0 0 0
272 2 4.676310611728175 6.29969626164141 4.663253195338115 0 0 0
273 1 3.117540131911845 7.199652862605111 3.1043466666666966 0 0 0
274 2 7.793851571360655 6.299696261641392 4.663253195337969 0 0 0
275 1 6.235081091544585 7.19965286260533 3.104346666666644 0 0 0
276 1 9.352622051177082 7.199652862605224 3.104346666666679 0 0 0
277 2 10.911392530993632 6.299696261641412 4.6632531953379015 0 0 0
278 1 12.470163010810209 7.1996528626051965 3.1043466666666713 0 0 0
279 2 14.02893349062682 6.2996962616414365 4.663253195337944 0 0 0
280 1 15.587703970443414 7.19965286260517 3.104346666666673 0 0 0
281 2 17.14647445025997 6.299696261641405 4.663253195337963 0 0 0
282 1 18.705244930076518 7.199652862605207 3.1043466666666775 0 0 0
283 2 20.26401540989302 6.299696261641443 4.663253195337922 0 0 0
284 2 23.38155636952625 6.299696261641426 4.66325319533791 0 0 0
285 1 21.822785889709568 7.199652862605192 3.1043466666666766 0 0 0
286 2 26.499097329159365 6.299696261641434 4.6632531953379575 0 0 0
287 1 24.94032684934279 7.1996528626051965 3.1043466666666797 0 0 0
288 2 29.616638288792597 6.2996962616414045 4.663253195337939 0 0 0
289 1 28.05786780897605 7.1996528626051965 3.1043466666666886 0 0 0
290 1 31.175408768609085 7.199652862605235 3.1043466666666775 0 0 0
291 2 32.73417924842558 6.2996962616414045 4.66325319533794 0 0 0
292 1 34.29294972824212 7.199652862605224 3.1043466666666792 0 0 0
293 2 35.85172020805871 6.299696261641473 4.663253195337933 0 0 0
294 1 37.41049068787533 7.199652862605252 3.1043466666666717 0 0 0
295 2 38.96926116769184 6.299696261641392 4.66325319533798 0 0 0
296 1 40.52803164750849 7.199652862605176 3.1043466666666775 0 0 0
297 2 42.086802127325164 6.29969626164148 4.663253195337873 0 0 0
298 1 1.5587696520933043 9.89952267666587 3.1043466666668587 0 0 0
299 1 4.676310611728303 9.899522676666383 3.104346666666631 0 0 0
300 2 3.1175401319118605 8.999566075702592 4.663253195338492 0 0 0
301 1 7.793851571361002 9.899522676666521 3.104346666666685 0 0 0
302 2 6.235081091545163 8.999566075702473 4.663253195338066 0 0 0
303 2 9.352622051177129 8.999566075702532 4.663253195338014 0 0 0
304 1 10.911392530993522 9.899522676666347 3.1043466666666704 0 0 0
305 2 12.47016301081007 8.999566075702614 4.663253195337902 0 0 0
306 1 14.028933490626722 9.899522676666368 3.104346666666673 0 0 0
307 2 15.587703970443373 8.999566075702566 4.66325319533792 0 0 0
308 1 17.146474450259955 9.899522676666447 3.1043466666666744 0 0 0
309 2 18.705244930076518 8.999566075702617 4.663253195337941 0 0 0
310 1 20.264015409893 9.89952267666643 3.1043466666666744 0 0 0
311 1 23.38155636952623 9.8995226766664 3.1043466666666726 0 0 0
312 2 21.822785889709614 8.999566075702562 4.663253195337944 0 0 0
313 1 26.49909732915943 9.899522676666374 3.1043466666666792 0 0 0
314 2 24.94032684934281 8.999566075702607 4.663253195337924 0 0 0
315 1 29.616638288792597 9.899522676666438 3.1043466666666837 0 0 0
316 2 28.05786780897601 8.999566075702601 4.66325319533794 0 0 0
317 2 31.175408768609106 8.999566075702614 4.6632531953379495 0 0 0
318 1 32.734179248425605 9.899522676666495 3.1043466666666886 0 0 0
319 2 34.292949728242256 8.999566075702594 4.663253195337937 0 0 0
320 1 35.85172020805882 9.899522676666447 3.1043466666666837 0 0 0
321 2 37.41049068787535 8.999566075702672 4.663253195337893 0 0 0
322 1 38.96926116769189 9.899522676666427 3.1043466666666775 0 0 0
323 2 40.52803164750847 8.99956607570255 4.663253195337986 0 0 0
324 1 42.086802127324965 9.899522676666347 3.1043466666666775 0 0 0
325 2 1.5587696520940553 11.699435889764173 4.66325319533801 0 0 0
326 2 4.676310611728154 11.699435889763818 4.663253195338107 0 0 0
327 1 3.117540131911845 12.599392490727615 3.1043466666667 0 0 0
328 2 7.793851571360637 11.699435889763842 4.663253195337974 0 0 0
329 1 6.235081091544575 12.599392490727771 3.104346666666644 0 0 0
330 1 9.35262205117711 12.59939249072771 3.10434666666668 0 0 0
331 2 10.911392530993654 11.699435889763818 4.663253195337889 0 0 0
332 1 12.470163010810209 12.599392490727643 3.1043466666666775 0 0 0
333 2 14.028933490626773 11.699435889763858 4.663253195337956 0 0 0
334 1 15.587703970443362 12.59939249072767 3.104346666666681 0 0 0
335 2 17.146474450259944 11.699435889763842 4.663253195337943 0 0 0
336 1 18.705244930076542 12.59939249072767 3.104346666666679 0 0 0
337 2 20.26401540989303 11.69943588976381 4.6632531953379255 0 0 0
338 2 23.381556369526198 11.699435889763851 4.663253195337931 0 0 0
339 1 21.822785889709635 12.599392490727704 3.1043466666666726 0 0 0
340 2 26.499097329159355 11.699435889763866 4.6632531953378855 0 0 0
341 1 24.940326849342807 12.599392490727636 3.1043466666666726 0 0 0
342 2 29.616638288792537 11.699435889763873 4.663253195337962 0 0 0
343 1 28.05786780897603 12.59939249072767 3.104346666666667 0 0 0
344 1 31.175408768609074 12.599392490727752 3.1043466666666877 0 0 0
345 2 32.73417924842558 11.69943588976388 4.66325319533795 0 0 0
346 1 34.29294972824212 12.59939249072763 3.1043466666666815 0 0 0
347 2 35.85172020805875 11.69943588976388 4.6632531953379495 0 0 0
348 1 37.41049068787535 12.599392490727704 3.10434666666668 0 0 0
349 2 38.969261167691975 11.699435889763803 4.663253195337966 0 0 0
350 1 40.52803164750847 12.599392490727663 3.1043466666666726 0 0 0
351 2 42.08680212732519 11.699435889763883 4.663253195337867 0 0 0
352 1 1.5587696520933076 15.299262304788426 3.104346666666873 0 0 0
353 1 4.676310611728299 15.299262304788963 3.104346666666633 0 0 0
354 2 3.1175401319118667 14.399305703825107 4.663253195338513 0 0 0
355 1 7.793851571360989 15.299262304789059 3.1043466666666837 0 0 0
356 2 6.235081091545171 14.399305703824972 4.663253195338063 0 0 0
357 2 9.352622051177129 14.39930570382502 4.663253195338023 0 0 0
358 1 10.911392530993542 15.29926230478886 3.104346666666676 0 0 0
359 2 12.47016301081009 14.3993057038251 4.663253195337893 0 0 0
360 1 14.028933490626738 15.299262304788915 3.1043466666666686 0 0 0
361 2 15.587703970443357 14.39930570382511 4.663253195337925 0 0 0
362 1 17.146474450259955 15.299262304788956 3.1043466666666744 0 0 0
363 2 18.705244930076518 14.399305703825075 4.66325319533794 0 0 0
364 1 20.26401540989302 15.29926230478899 3.1043466666666766 0 0 0
365 1 23.381556369526198 15.299262304788893 3.1043466666666664 0 0 0
366 2 21.822785889709635 14.39930570382513 4.663253195337922 0 0 0
367 1 26.499097329159355 15.299262304788948 3.1043466666666775 0 0 0
368 2 24.940326849342767 14.399305703825068 4.663253195337939 0 0 0
369 1 29.616638288792558 15.299262304788963 3.104346666666675 0 0 0
370 2 28.05786780897602 14.399305703825068 4.663253195337921 0 0 0
371 2 31.175408768609156 14.39930570382517 4.663253195337973 0 0 0
372 1 32.73417924842572 15.299262304788941 3.104346666666689 0 0 0
373 2 34.292949728242256 14.399305703825068 4.663253195337957 0 0 0
374 1 35.85172020805882 15.29926230478897 3.1043466666666744 0 0 0
375 2 37.41049068787535 14.399305703825116 4.663253195337876 0 0 0
376 1 38.969261167692004 15.299262304788941 3.1043466666666775 0 0 0
377 2 40.52803164750847 14.3993057038251 4.663253195337945 0 0 0
378 1 42.08680212732503 15.299262304788915 3.1043466666666886 0 0 0
379 2 1.5587696520940648 17.099175517886795 4.663253195338008 0 0 0
380 2 4.676310611728163 17.09917551788644 4.663253195338126 0 0 0
381 1 3.117540131911854 17.99913211885017 3.1043466666666886 0 0 0
382 2 7.79385157136064 17.099175517886408 4.663253195337992 0 0 0
383 1 6.235081091544572 17.999132118850333 3.1043466666666553 0 0 0
384 1 9.352622051177121 17.9991321188502 3.1043466666666912 0 0 0
385 2 10.911392530993638 17.099175517886373 4.663253195337905 0 0 0
386 1 12.470163010810246 17.99913211885016 3.1043466666666846 0 0 0
387 2 14.02893349062682 17.099175517886444 4.663253195337942 0 0 0
388 1 15.587703970443384 17.99913211885022 3.104346666666675 0 0 0
389 2 17.146474450259955 17.099175517886415 4.663253195337958 0 0 0
390 1 18.705244930076574 17.999132118850206 3.1043466666666784 0 0 0
391 2 20.26401540989301 17.099175517886415 4.663253195337944 0 0 0
392 2 23.38155636952625 17.099175517886408 4.6632531953379 0 0 0
393 1 21.82278588970967 17.999132118850206 3.1043466666666717 0 0 0
394 2 26.499097329159376 17.099175517886408 4.663253195337952 0 0 0
395 1 24.940326849342807 17.99913211885017 3.1043466666666752 0 0 0
396 2 29.61663828879262 17.09917551788636 4.6632531953379335 0 0 0
397 1 28.05786780897599 17.99913211885017 3.1043466666666775 0 0 0
398 1 31.1754087686092 17.99913211885017 3.104346666666675 0 0 0
399 2 32.73417924842574 17.099175517886444 4.6632531953379 0 0 0
400 1 34.29294972824221 17.99913211885017 3.1043466666666775 0 0 0
401 2 35.85172020805882 17.09917551788636 4.663253195337964 0 0 0
402 1 37.41049068787528 17.999132118850163 3.104346666666691 0 0 0
403 2 38.969261167692004 17.09917551788635 4.663253195337959 0 0 0
404 1 40.528031647508584 17.999132118850206 3.1043466666666744 0 0 0
405 2 42.08680212732519 17.09917551788646 4.663253195337888 0 0 0
406 1 1.558769652093314 20.69900193291097 3.10434666666685 0 0 0
407 1 4.676310611728291 20.699001932911468 3.1043466666666304 0 0 0
408 2 3.1175401319118707 19.79904533194763 4.663253195338486 0 0 0
409 1 7.793851571361007 20.699001932911543 3.104346666666683 0 0 0
410 2 6.235081091545171 19.799045331947536 4.663253195338053 0 0 0
411 2 9.352622051177129 19.799045331947625 4.663253195338055 0 0 0
412 1 10.911392530993558 20.699001932911468 3.104346666666681 0 0 0
413 2 12.47016301081009 19.799045331947678 4.663253195337942 0 0 0
414 1 14.028933490626768 20.699001932911425 3.1043466666666886 0 0 0
415 2 15.587703970443394 19.799045331947653 4.663253195337953 0 0 0
416 1 17.14647445025997 20.699001932911468 3.1043466666666784 0 0 0
417 2 18.705244930076574 19.79904533194772 4.663253195337946 0 0 0
418 1 20.264015409893066 20.699001932911493 3.104346666666675 0 0 0
419 1 23.38155636952623 20.699001932911468 3.1043466666666717 0 0 0
420 2 21.822785889709625 19.79904533194766 4.663253195337938 0 0 0
421 1 26.49909732915943 20.699001932911468 3.1043466666666775 0 0 0
422 2 24.940326849342828 19.79904533194766 4.663253195337935 0 0 0
423 1 29.616638288792597 20.699001932911468 3.104346666666681 0 0 0
424 2 28.05786780897599 19.799045331947646 4.66325319533791 0 0 0
425 2 31.175408768609167 19.799045331947625 4.6632531953379575 0 0 0
426 1 32.73417924842558 20.699001932911518 3.104346666666678 0 0 0
427 2 34.2929497282421 19.79904533194763 4.663253195337961 0 0 0
428 1 35.851720208058794 20.69900193291149 3.1043466666666744 0 0 0
429 2 37.41049068787535 19.79904533194766 4.6632531953379095 0 0 0
430 1 38.969261167691954 20.69900193291155 3.1043466666666784 0 0 0
431 2 40.52803164750847 19.79904533194764 4.663253195337957 0 0 0
432 1 42.08680212732503 20.699001932911422 3.1043466666666846 0 0 0
433 2 1.5587696520940655 22.498915146009278 4.663253195338016 0 0 0
434 2 4.676310611728146 22.49891514600891 4.66325319533811 0 0 0
435 1 3.1175401319118436 23.39887174697264 3.104346666666694 0 0 0
436 2 7.793851571360697 22.498915146008905 4.663253195338006 0 0 0
437 1 6.235081091544565 23.398871746972876 3.1043466666666495 0 0 0
438 1 9.3526220511771 23.398871746972738 3.1043466666666824 0 0 0
439 2 10.911392530993654 22.49891514600885 4.663253195337902 0 0 0
440 1 12.470163010810246 23.398871746972713 3.10434666666669 0 0 0
441 2 14.02893349062683 22.49891514600891 4.663253195337953 0 0 0
442 1 15.587703970443414 23.398871746972713 3.1043466666666744 0 0 0
443 2 17.146474450259955 22.49891514600891 4.66325319533795 0 0 0