LAMMPS data file via write_data, version 2 Aug 2023, timestep = 1912, units = metal

47216 atoms
3 atom types

0 1558.7680993867477 xlo xhi
0 86.39578179532408 ylo yhi
0 50 zlo zhi
0 0 0 xy xz yz

Masses

1 95.94
2 32.065
3 32.065

Atoms # atomic

1 3 1.5586942397437396 0.8999417324614803 1.5462670159810419 0 0 0
2 3 4.676085294767738 0.8999433806207182 1.5462579246468355 0 0 0
3 3 7.793477280557629 0.8999409969847008 1.5462408404655277 0 0 0
4 3 10.910871128066225 0.8999463241974489 1.5462246794066838 0 0 0
5 3 14.028253576927893 0.8999263056506256 1.5462508228808962 0 0 0
6 3 17.145798220201254 0.8999561573092378 1.5460039726264763 0 0 0
7 3 20.263354037961715 0.8999587286586523 1.5457961528178747 0 0 0
8 3 23.380922047966795 0.899956398612295 1.5456158098965604 0 0 0
9 3 26.498490184269325 0.899956772603987 1.5454708451193542 0 0 0
10 3 29.616059771795914 0.8999576293780329 1.5453610967190898 0 0 0
11 3 32.733632107914666 0.89995924905667 1.5452925694867143 0 0 0
12 3 35.851203016183845 0.8999580004532202 1.5452667118249008 0 0 0
13 3 38.968770516265046 0.8999570012173743 1.5452777202244121 0 0 0
14 3 42.08632720474827 0.8999570956499772 1.5453103852560384 0 0 0
15 3 3.1173909077736797 3.5998101246732577 1.5462639751047371 0 0 0
16 3 6.234782787789654 3.5998126358574734 1.5462502637439397 0 0 0
17 3 9.35217204040707 3.599811016950735 1.5462333299234317 0 0 0
18 3 12.46955983411431 3.599791288595763 1.546187789868003 0 0 0
19 3 15.58700108762743 3.599826281883427 1.5461324076236749 0 0 0
20 3 18.704568777497926 3.599824672215134 1.545898944227476 0 0 0
21 3 21.822137986037145 3.5998260169955762 1.5457010039830372 0 0 0
22 3 24.93970568481675 3.5998250715837647 1.5455392504121044 0 0 0
23 3 28.057273855474158 3.599824260617553 1.5454113460415195 0 0 0
24 3 31.17484557530879 3.5998266200630793 1.5453211481205522 0 0 0
25 3 34.292418044262824 3.599826548808262 1.5452746174315035 0 0 0
26 3 37.409988247909446 3.599826304398303 1.5452679127768438 0 0 0
27 3 40.527550660511984 3.599825156599177 1.5452931563390995 0 0 0
28 3 1.558694239742809 6.299678094669113 1.546267015981927 0 0 0
29 3 4.67608529476795 6.299679742826344 1.5462579246460728 0 0 0
30 3 7.7934772805579655 6.2996773591923345 1.546240840465608 0 0 0
31 3 10.910871128066438 6.299682686405764 1.5462246794060914 0 0 0
32 3 14.028253576928929 6.299662667857548 1.5462508228809368 0 0 0
33 3 17.145798220201513 6.299692519516459 1.5460039726265649 0 0 0
34 3 20.263354037961715 6.299695090866197 1.5457961528177957 0 0 0
35 3 23.380922047966774 6.299692760820157 1.545615809896544 0 0 0
36 3 26.498490184269055 6.29969313481191 1.5454708451194832 0 0 0
37 3 29.61605977179577 6.299693991585758 1.5453610967190814 0 0 0
38 3 32.73363210791467 6.299695611264471 1.5452925694865878 0 0 0
39 3 35.85120301618379 6.2996943626608966 1.5452667118248629 0 0 0
40 3 38.96877051626515 6.299693363425101 1.5452777202245134 0 0 0
41 3 42.08632720474821 6.299693457857522 1.5453103852561039 0 0 0
42 3 3.117390907772864 8.999546486880785 1.546263975106037 0 0 0
43 3 6.23478278779041 8.999548998064581 1.5462502637436248 0 0 0
44 3 9.352172040405934 8.999547379158665 1.5462333299228392 0 0 0
45 3 12.469559834112353 8.99952765080446 1.5461877898684062 0 0 0
46 3 15.587001087627284 8.999562644091622 1.5461324076238114 0 0 0
47 3 18.704568777498388 8.999561034422978 1.5458989442276139 0 0 0
48 3 21.822137986037294 8.999562379203173 1.5457010039829682 0 0 0
49 3 24.939705684816822 8.999561433791312 1.5455392504121366 0 0 0
50 3 28.057273855474055 8.999560622824967 1.545411346041761 0 0 0
51 3 31.17484557530871 8.999562982271026 1.5453211481205238 0 0 0
52 3 34.29241804426273 8.99956291101622 1.5452746174315197 0 0 0
53 3 37.40998824790925 8.999562666606133 1.545267912776843 0 0 0
54 3 40.527550660512006 8.999561518806859 1.5452931563389944 0 0 0
55 3 1.558694239743906 11.699414456877463 1.5462670159819476 0 0 0
56 3 4.676085294768231 11.699416105035086 1.546257924646226 0 0 0
57 3 7.7934772805577195 11.699413721400362 1.5462408404651307 0 0 0
58 3 10.910871128066432 11.699419048614043 1.5462246794065175 0 0 0
59 3 14.028253576927636 11.69939903006617 1.5462508228810223 0 0 0
60 3 17.145798220200653 11.699428881724408 1.5460039726264336 0 0 0
61 3 20.263354037961424 11.699431453074144 1.5457961528177608 0 0 0
62 3 23.380922047966806 11.699429123027915 1.5456158098965787 0 0 0
63 3 26.498490184269613 11.699429497019548 1.5454708451194257 0 0 0
64 3 29.616059771796202 11.699430353793547 1.5453610967192792 0 0 0
65 3 32.73363210791479 11.69943197347234 1.545292569486627 0 0 0
66 3 35.85120301618378 11.699430724868822 1.545266711824796 0 0 0
67 3 38.96877051626486 11.69942972563289 1.545277720224387 0 0 0
68 3 42.08632720474814 11.699429820065173 1.545310385256113 0 0 0
69 3 3.117390907772571 14.399282849089245 1.5462639751034175 0 0 0
70 3 6.234782787788549 14.399285360272804 1.5462502637444104 0 0 0
71 3 9.352172040406792 14.399283741366931 1.5462333299235995 0 0 0
72 3 12.469559834113507 14.399264013012752 1.546187789868173 0 0 0
73 3 15.587001087627755 14.399299006299795 1.5461324076232852 0 0 0
74 3 18.704568777498242 14.399297396630677 1.5458989442274693 0 0 0
75 3 21.822137986037124 14.399298741411046 1.5457010039830812 0 0 0
76 3 24.93970568481675 14.399297795999138 1.5455392504121468 0 0 0
77 3 28.057273855474087 14.399296985032809 1.5454113460416898 0 0 0
78 3 31.17484557530886 14.399299344478667 1.5453211481206888 0 0 0
79 3 34.292418044262924 14.399299273224123 1.5452746174315561 0 0 0
80 3 37.40998824790925 14.399299028813797 1.545267912776687 0 0 0
81 3 40.52755066051205 14.399297881014581 1.5452931563390153 0 0 0
82 3 1.5586942397422505 17.099150819085548 1.546267015981233 0 0 0
83 3 4.676085294769458 17.099152467242305 1.5462579246465078 0 0 0
84 3 7.793477280558237 17.099150083607775 1.546240840465676 0 0 0
85 3 10.910871128066297 17.09915541082138 1.5462246794064718 0 0 0
86 3 14.02825357692719 17.09913539227439 1.5462508228808483 0 0 0
87 3 17.14579822020136 17.09916524393212 1.546003972626421 0 0 0
88 3 20.26335403796193 17.099167815281838 1.5457961528179764 0 0 0
89 3 23.380922047967054 17.09916548523582 1.5456158098966077 0 0 0
90 3 26.498490184269354 17.09916585922746 1.5454708451193158 0 0 0
91 3 29.61605977179583 17.09916671600113 1.545361096719165 0 0 0
92 3 32.73363210791474 17.09916833568005 1.545292569486663 0 0 0
93 3 35.85120301618385 17.099167087076594 1.5452667118248067 0 0 0
94 3 38.968770516264854 17.099166087840622 1.5452777202243395 0 0 0
95 3 42.08632720474817 17.099166182272896 1.5453103852560741 0 0 0
96 3 3.1173909077729247 19.79901921129667 1.5462639751052427 0 0 0
97 3 6.234782787789315 19.799021722479615 1.54625026374412 0 0 0
98 3 9.352172040406286 19.79902010357365 1.5462333299229074 0 0 0
99 3 12.469559834112513 19.799000375219627 1.5461877898688017 0 0 0
100 3 15.58700108762703 19.79903536850716 1.5461324076232659 0 0 0
101 3 18.70456877749797 19.799033758838384 1.5458989442274176 0 0 0
102 3 21.82213798603718 19.7990351036188 1.545701003983066 0 0 0
103 3 24.93970568481702 19.799034158206922 1.5455392504121064 0 0 0
104 3 28.057273855474005 19.79903334724071 1.5454113460416496 0 0 0
105 3 31.174845575308698 19.79903570668643 1.5453211481205344 0 0 0
106 3 34.29241804426289 19.79903563543181 1.5452746174315302 0 0 0
107 3 37.40998824790913 19.79903539102169 1.5452679127769142 0 0 0
108 3 40.527550660511935 19.79903424322223 1.5452931563390058 0 0 0
109 3 1.5586942397432537 22.498887181292083 1.5462670159815233 0 0 0
110 3 4.6760852947686375 22.49888882944985 1.5462579246461776 0 0 0
111 3 7.793477280557859 22.49888644581635 1.5462408404652663 0 0 0
112 3 10.91087112806557 22.498891773028483 1.5462246794065022 0 0 0
113 3 14.028253576927423 22.498871754481513 1.5462508228808776 0 0 0
114 3 17.14579822020141 22.498901606140166 1.5460039726263066 0 0 0
115 3 20.26335403796186 22.49890417748951 1.545796152817851 0 0 0
116 3 23.380922047967147 22.498901847443268 1.545615809896558 0 0 0
117 3 26.498490184269148 22.49890222143509 1.5454708451194468 0 0 0
118 3 29.616059771795438 22.498903078209082 1.545361096719164 0 0 0
119 3 32.73363210791474 22.49890469788777 1.5452925694866084 0 0 0
120 3 35.8512030161839 22.498903449284672 1.5452667118249155 0 0 0
121 3 38.96877051626504 22.498902450048384 1.5452777202244738 0 0 0
122 3 42.08632720474838 22.498902544480774 1.5453103852559782 0 0 0
123 3 3.1173909077734163 25.198755573504492 1.54626397510554 0 0 0
124 3 6.23478278778952 25.19875808468862 1.5462502637442808 0 0 0
125 3 9.352172040406868 25.198756465781614 1.5462333299233784 0 0 0
126 3 12.46955983411347 25.198736737427346 1.546187789868685 0 0 0
127 3 15.587001087627446 25.198771730715325 1.5461324076234364 0 0 0
128 3 18.70456877749848 25.198770121046607 1.5458989442274955 0 0 0
129 3 21.822137986037532 25.198771465826475 1.545701003983008 0 0 0
130 3 24.939705684817344 25.1987705204144 1.545539250412128 0 0 0
131 3 28.057273855474097 25.19876970944838 1.5454113460417416 0 0 0
132 3 31.17484557530846 25.198772068894137 1.5453211481206133 0 0 0
133 3 34.29241804426273 25.198771997639668 1.5452746174314824 0 0 0
134 3 37.40998824790906 25.19877175322956 1.545267912776993 0 0 0
135 3 40.52755066051194 25.198770605430177 1.5452931563389218 0 0 0
136 3 1.5586942397436976 27.898623543499685 1.5462670159808676 0 0 0
137 3 4.676085294769542 27.898625191656848 1.5462579246464772 0 0 0
138 3 7.793477280557437 27.898622808023898 1.546240840465426 0 0 0
139 3 10.910871128065923 27.898628135236564 1.5462246794066181 0 0 0
140 3 14.028253576927733 27.89860811668941 1.5462508228812295 0 0 0
141 3 17.145798220200746 27.89863796834837 1.5460039726262824 0 0 0
142 3 20.26335403796175 27.898640539697453 1.5457961528178261 0 0 0
143 3 23.380922047967125 27.89863820965124 1.5456158098966266 0 0 0
144 3 26.498490184269386 27.89863858364268 1.545470845119486 0 0 0
145 3 29.61605977179557 27.898639440416975 1.5453610967191898 0 0 0
146 3 32.733632107914644 27.898641060095468 1.5452925694865334 0 0 0
147 3 35.85120301618399 27.89863981149226 1.5452667118248091 0 0 0
148 3 38.96877051626479 27.898638812256326 1.5452777202245118 0 0 0
149 3 42.0863272047482 27.89863890668877 1.545310385255971 0 0 0
150 3 3.1173909077734643 30.59849193571249 1.54626397510507 0 0 0
151 3 6.23478278778904 30.598494446895124 1.5462502637433477 0 0 0
152 3 9.352172040407316 30.598492827989844 1.546233329923908 0 0 0
153 3 12.469559834112902 30.598473099635882 1.5461877898689056 0 0 0
154 3 15.587001087627227 30.598508092922927 1.546132407623363 0 0 0
155 3 18.704568777498064 30.598506483254496 1.5458989442272124 0 0 0
156 3 21.822137986037326 30.59850782803461 1.5457010039831365 0 0 0
157 3 24.939705684817103 30.59850688262247 1.5455392504122822 0 0 0
158 3 28.057273855474147 30.598506071656104 1.5454113460415675 0 0 0
159 3 31.174845575308584 30.598508431101767 1.5453211481205225 0 0 0
160 3 34.292418044262845 30.598508359847298 1.545274617431597 0 0 0
161 3 37.40998824790906 30.598508115437244 1.545267912776915 0 0 0
162 3 40.52755066051176 30.598506967637938 1.5452931563390897 0 0 0
163 3 1.5586942397428905 33.29835990570684 1.5462670159802745 0 0 0
164 3 4.676085294769523 33.298361553865696 1.5462579246473207 0 0 0
165 3 7.793477280557222 33.29835917023157 1.5462408404654244 0 0 0
166 3 10.910871128066761 33.298364497444204 1.5462246794067 0 0 0
167 3 14.028253576927717 33.298344478897114 1.546250822881303 0 0 0
168 3 17.145798220200522 33.29837433055562 1.5460039726264954 0 0 0
169 3 20.263354037961467 33.29837690190515 1.5457961528177042 0 0 0
170 3 23.380922047966987 33.2983745718591 1.5456158098966635 0 0 0
171 3 26.498490184269563 33.29837494585059 1.5454708451193744 0 0 0
172 3 29.61605977179585 33.298375802624534 1.5453610967190534 0 0 0
173 3 32.733632107914694 33.29837742230319 1.5452925694867166 0 0 0
174 3 35.85120301618371 33.29837617370012 1.5452667118248797 0 0 0
175 3 38.96877051626484 33.298375174464 1.5452777202244388 0 0 0
176 3 42.08632720474809 33.298375268896486 1.5453103852561099 0 0 0
177 3 3.1173909077723785 35.99822829792065 1.546263975105154 0 0 0
178 3 6.234782787789023 35.99823080910292 1.5462502637440367 0 0 0
179 3 9.352172040406334 35.998229190197584 1.5462333299235875 0 0 0
180 3 12.46955983411327 35.998209461843395 1.54618778986853 0 0 0
181 3 15.587001087627838 35.998244455130106 1.5461324076233571 0 0 0
182 3 18.704568777497848 35.99824284546198 1.5458989442273896 0 0 0
183 3 21.822137986037124 35.998244190242225 1.5457010039830137 0 0 0
184 3 24.939705684816957 35.99824324483022 1.5455392504121328 0 0 0
185 3 28.05727385547413 35.998242433864 1.545411346041599 0 0 0
186 3 31.17484557530878 35.99824479330963 1.545321148120569 0 0 0
187 3 34.29241804426294 35.998244722055 1.5452746174316556 0 0 0
188 3 37.409988247909176 35.998244477645066 1.545267912776895 0 0 0
189 3 40.52755066051191 35.998243329845856 1.5452931563388757 0 0 0
190 3 1.558694239743998 38.69809626791649 1.5462670159821814 0 0 0
191 3 4.676085294770382 38.6980979160738 1.5462579246460153 0 0 0
192 3 7.793477280557367 38.698095532439375 1.5462408404661092 0 0 0
193 3 10.910871128066416 38.6981008596521 1.5462246794066659 0 0 0
194 3 14.028253576928012 38.69808084110495 1.5462508228809293 0 0 0
195 3 17.145798220201186 38.69811069276346 1.5460039726264714 0 0 0
196 3 20.263354037961783 38.69811326411277 1.5457961528177968 0 0 0
197 3 23.380922047967033 38.69811093406679 1.545615809896507 0 0 0
198 3 26.498490184269553 38.69811130805842 1.5454708451195454 0 0 0
199 3 29.616059771795964 38.698112164832594 1.5453610967191427 0 0 0
200 3 32.73363210791481 38.698113784510866 1.5452925694866457 0 0 0
201 3 35.851203016183824 38.69811253590767 1.5452667118248513 0 0 0
202 3 38.96877051626483 38.69811153667186 1.5452777202244712 0 0 0
203 3 42.08632720474791 38.69811163110409 1.545310385256007 0 0 0
204 3 3.117390907771849 41.39796466012761 1.5462639751057903 0 0 0
205 3 6.2347827877893645 41.397967171311315 1.5462502637439108 0 0 0
206 3 9.352172040407014 41.39796555240472 1.5462333299231872 0 0 0
207 3 12.469559834113737 41.39794582405092 1.546187789868526 0 0 0
208 3 15.587001087627636 41.397980817338585 1.546132407623547 0 0 0
209 3 18.704568777497865 41.39797920766974 1.5458989442275723 0 0 0
210 3 21.822137986037045 41.39798055244973 1.545701003982999 0 0 0
211 3 24.939705684816857 41.397979607038 1.545539250412027 0 0 0
212 3 28.057273855474396 41.39797879607176 1.5454113460416716 0 0 0
213 3 31.17484557530875 41.39798115551755 1.5453211481205167 0 0 0
214 3 34.29241804426271 41.397981084262746 1.545274617431558 0 0 0
215 3 37.409988247909084 41.397980839852686 1.545267912776854 0 0 0
216 3 40.52755066051182 41.39797969205341 1.545293156339006 0 0 0
219 1 3.1173947940246713 1.799921178874513 3.105250341693953 0 0 0
221 1 6.23479020809703 1.7999218560055588 3.1052379753656716 0 0 0
222 1 9.35217973322001 1.7999193111071365 3.1052209874276295 0 0 0
224 1 12.469557007487401 1.7999400574199167 3.105216471158798 0 0 0
225 2 14.028461279044818 0.8999575117941273 4.664007811165928 0 0 0
226 1 15.587135685882876 1.799903046732959 3.105022508608701 0 0 0
227 2 17.146013028188385 0.8999529449670147 4.663820623023254 0 0 0
228 1 18.70467734041395 1.7999108479411723 3.104804641811585 0 0 0
229 2 20.263552169693252 0.8999547087492453 4.663608415189795 0 0 0
230 2 23.381083891394216 0.8999551592328918 4.663428044611761 0 0 0
231 1 21.82222718063856 1.7999105769769395 3.104606477135498 0 0 0
232 2 26.498617490495956 0.8999536373088951 4.663282514776846 0 0 0
233 1 24.939778858145875 1.799909628150736 3.104443771875207 0 0 0
234 2 29.616149441629894 0.8999541684718328 4.663172913726757 0 0 0
235 1 28.05732914420257 1.7999092171217423 3.1043163404901972 0 0 0
236 1 31.174880126263798 1.7999109994614342 3.1042262524528113 0 0 0
237 2 32.73367933038382 0.8999559337164631 4.6631043399391805 0 0 0
238 1 34.29243164524351 1.7999110579578266 3.1041798556333307 0 0 0
239 2 35.851211232232814 0.8999549322184387 4.663078760449072 0 0 0
240 1 37.40998286542764 1.7999105716703714 3.104173478949577 0 0 0
241 2 38.9687462048911 0.899955939649831 4.6630902464160835 0 0 0
242 1 40.52753399022625 1.7999107502950666 3.1041986697133583 0 0 0
243 2 42.08629246829304 0.8999571366521448 4.6631222966151595 0 0 0
244 1 1.5586988868831009 4.4997878901130095 3.1052546549711737 0 0 0
245 1 4.676092527361005 4.499789363772175 3.105244101108605 0 0 0
247 1 7.793486685512299 4.499790277138059 3.1052321316072304 0 0 0
250 1 10.910892116245913 4.499786167854341 3.1052034438878646 0 0 0
252 1 14.028286456449576 4.499727268855525 3.105152624053308 0 0 0
253 2 15.587242786208703 3.5998235278310773 4.66392478708985 0 0 0
254 1 17.14589854622494 4.49978118080534 3.1049120562254506 0 0 0
255 2 18.70478030612604 3.599824801987982 4.663709335022354 0 0 0
256 1 20.263450691001903 4.4997781866008815 3.104700253153427 0 0 0
257 1 23.381002845897825 4.499778095851204 3.104521359548894 0 0 0
258 2 21.822316647213697 3.5998230841920624 4.663512849580556 0 0 0
259 1 26.498553903091786 4.499777503624859 3.1043760734738055 0 0 0
260 2 24.939851209614837 3.5998229815841825 4.663351272562111 0 0 0
261 1 29.6161041428822 4.49977807709428 3.1042657313125397 0 0 0
262 2 28.057383878986098 3.5998215244148395 4.6632232369487605 0 0 0
263 2 31.174914703988996 3.599823648005357 4.663133368689559 0 0 0
264 1 32.73365583839573 4.499779573404889 3.104197367488532 0 0 0
265 2 34.29244495466879 3.599824002749705 4.663086284121278 0 0 0
266 1 35.85120756703912 4.499778715102634 3.1041714070914987 0 0 0
267 2 37.40997765571856 3.59982282582541 4.663080633963955 0 0 0
268 1 38.968758516293136 4.499778737475373 3.104183967750697 0 0 0
269 2 40.52751857025269 3.599825111621263 4.663104978066247 0 0 0
270 1 42.08630978128731 4.499779408549616 3.1042164580157605 0 0 0
273 1 3.1173947940242495 7.199657541082511 3.1052503416945076 0 0 0
275 1 6.234790208096566 7.199658218212112 3.1052379753649872 0 0 0
276 1 9.352179733219808 7.199655673315333 3.105220987427003 0 0 0
278 1 12.469557007487566 7.199676419627627 3.105216471157811 0 0 0
279 2 14.02846127904488 6.2996938740021 4.664007811165935 0 0 0
280 1 15.587135685883254 7.199639408940854 3.1050225086088066 0 0 0
281 2 17.146013028188477 6.2996893071741695 4.663820623023251 0 0 0
282 1 18.704677340414143 7.199647210148645 3.104804641811519 0 0 0
283 2 20.26355216969314 6.2996910709570395 4.6636084151896915 0 0 0
284 2 23.381083891393978 6.299691521440638 4.663428044611782 0 0 0
285 1 21.822227180638468 7.199646939184464 3.104606477135415 0 0 0
286 2 26.49861749049559 6.299689999516631 4.663282514777097 0 0 0
287 1 24.939778858145562 7.19964599035844 3.1044437718753612 0 0 0
288 2 29.61614944162982 6.2996905306796265 4.663172913726799 0 0 0
289 1 28.05732914420232 7.199645579329345 3.1043163404903145 0 0 0
290 1 31.17488012626382 7.19964736166932 3.1042262524527313 0 0 0
291 2 32.733679330383865 6.299692295924307 4.6631043399391015 0 0 0
292 1 34.29243164524346 7.199647420165714 3.104179855633315 0 0 0
293 2 35.851211232232835 6.299691294426061 4.663078760448906 0 0 0
294 1 37.40998286542776 7.199646933878136 3.104173478949602 0 0 0
295 2 38.9687462048912 6.2996923018576885 4.6630902464161545 0 0 0
296 1 40.527533990226324 7.199647112502671 3.1041986697134125 0 0 0
297 2 42.08629246829313 6.299693498859946 4.663122296615279 0 0 0
298 1 1.5586988868802563 9.899524252319319 3.1052546549719993 0 0 0
299 1 4.676092527360846 9.899525725980128 3.105244101108392 0 0 0
301 1 7.793486685512015 9.899526639345618 3.105232131606831 0 0 0
304 1 10.910892116243122 9.89952253006217 3.105203443888257 0 0 0
306 1 14.028286456449127 9.89946363106334 3.1051526240534555 0 0 0
307 2 15.587242786208833 8.999559890039421 4.66392478708963 0 0 0
308 1 17.14589854622537 9.899517543013499 3.1049120562254937 0 0 0
309 2 18.70478030612657 8.999561164195496 4.663709335022343 0 0 0
310 1 20.263450691002323 9.899514548808789 3.1047002531534624 0 0 0
311 1 23.381002845897896 9.89951445805889 3.1045213595487886 0 0 0
312 2 21.822316647214002 8.999559446399601 4.663512849580479 0 0 0
313 1 26.498553903091775 9.899513865832414 3.104376073473905 0 0 0
314 2 24.9398512096147 8.999559343791812 4.6633512725621635 0 0 0
315 1 29.616104142882076 9.899514439302038 3.1042657313126782 0 0 0
316 2 28.057383878986162 8.999557886622421 4.66322323694888 0 0 0
317 2 31.17491470398905 8.999560010213111 4.663133368689553 0 0 0
318 1 32.73365583839574 9.899515935612788 3.1041973674885686 0 0 0
319 2 34.29244495466871 8.999560364957683 4.6630862841213245 0 0 0
320 1 35.85120756703922 9.899515077310516 3.1041714070915183 0 0 0
321 2 37.40997765571847 8.999559188033311 4.663080633963916 0 0 0
322 1 38.96875851629314 9.89951509968314 3.1041839677505623 0 0 0
323 2 40.52751857025249 8.999561473829115 4.663104978066158 0 0 0
324 1 42.086309781287405 9.899515770757292 3.104216458015683 0 0 0
327 1 3.1173947940254596 12.599393903289606 3.1052503416948953 0 0 0
329 1 6.23479020809651 12.59939458041968 3.1052379753650343 0 0 0
330 1 9.352179733219131 12.599392035523099 3.1052209874276127 0 0 0
332 1 12.469557007487275 12.599412781837067 3.1052164711582253 0 0 0
333 2 14.028461279044425 11.699430236210413 4.664007811166199 0 0 0
334 1 15.587135685882565 12.599375771148875 3.105022508608557 0 0 0
335 2 17.14601302818784 11.69942566938247 4.663820623023074 0 0 0
336 1 18.704677340413557 12.599383572356542 3.104804641811376 0 0 0
337 2 20.26355216969264 11.699427433165035 4.663608415189724 0 0 0
338 2 23.38108389139417 11.699427883648474 4.6634280446116625 0 0 0
339 1 21.822227180638333 12.599383301392324 3.104606477135467 0 0 0
340 2 26.498617490496017 11.699426361724424 4.663282514777062 0 0 0
341 1 24.939778858145843 12.599382352566208 3.1044437718752356 0 0 0
342 2 29.616149441630213 11.69942689288745 4.663172913726913 0 0 0
343 1 28.057329144202726 12.599381941537066 3.1043163404903966 0 0 0
344 1 31.174880126264025 12.599383723877096 3.1042262524528876 0 0 0
345 2 32.73367933038406 11.699428658132126 4.663104339939208 0 0 0
346 1 34.29243164524339 12.599383782373476 3.104179855633315 0 0 0
347 2 35.85121123223284 11.699427656633869 4.663078760448967 0 0 0
348 1 37.40998286542758 12.599383296085902 3.1041734789495194 0 0 0
349 2 38.968746204890984 11.69942866406545 4.663090246416118 0 0 0
350 1 40.527533990226345 12.599383474710361 3.1041986697133366 0 0 0
351 2 42.08629246829309 11.69942986106743 4.663122296615228 0 0 0
352 1 1.5586988868806364 15.299260614525885 3.105254654971439 0 0 0
353 1 4.676092527359487 15.299262088187275 3.105244101108898 0 0 0
355 1 7.793486685511393 15.299263001553632 3.1052321316068383 0 0 0
358 1 10.910892116245163 15.299258892270377 3.105203443887751 0 0 0
360 1 14.028286456449752 15.299199993271612 3.1051526240530403 0 0 0
361 2 15.587242786208625 14.399296252247504 4.663924787089354 0 0 0
362 1 17.14589854622543 15.29925390522121 3.1049120562252996 0 0 0
363 2 18.70478030612615 14.399297526403172 4.663709335022317 0 0 0
364 1 20.263450691002078 15.299250911016268 3.104700253153564 0 0 0
365 1 23.38100284589784 15.299250820266792 3.1045213595488574 0 0 0
366 2 21.822316647213846 14.399295808607361 4.663512849580569 0 0 0
367 1 26.498553903091715 15.299250228040238 3.1043760734737593 0 0 0
368 2 24.93985120961489 14.39929570599966 4.663351272561989 0 0 0
369 1 29.616104142882065 15.299250801509704 3.1042657313126876 0 0 0
370 2 28.057383878985984 14.39929424883025 4.663223236948898 0 0 0
371 2 31.174914703989028 14.399296372420913 4.663133368689739 0 0 0
372 1 32.733655838395826 15.299252297820459 3.104197367488668 0 0 0
373 2 34.29244495466888 14.399296727165428 4.663086284121293 0 0 0
374 1 35.85120756703914 15.299251439518374 3.104171407091493 0 0 0
375 2 37.409977655718514 14.399295550240925 4.663080633963911 0 0 0
376 1 38.968758516293114 15.299251461890904 3.1041839677504983 0 0 0
377 2 40.52751857025254 14.39929783603669 4.663104978066184 0 0 0
378 1 42.08630978128734 15.299252132965066 3.1042164580157525 0 0 0
381 1 3.1173947940254236 17.999130265496248 3.105250341693887 0 0 0
383 1 6.234790208098034 17.999130942627332 3.1052379753654167 0 0 0
384 1 9.352179733219614 17.99912839773033 3.1052209874276873 0 0 0
386 1 12.46955700748669 17.999149144043763 3.1052164711587 0 0 0
387 2 14.028461279044501 17.099166598417803 4.664007811165926 0 0 0
388 1 15.587135685882757 17.9991121333563 3.105022508608332 0 0 0
389 2 17.146013028188165 17.099162031590204 4.663820623023067 0 0 0
390 1 18.704677340414047 17.99911993456427 3.104804641811541 0 0 0
391 2 20.263552169693174 17.099163795372647 4.663608415189828 0 0 0
392 2 23.381083891394436 17.09916424585632 4.663428044611771 0 0 0
393 1 21.822227180638706 17.999119663599995 3.1046064771355533 0 0 0
394 2 26.498617490495832 17.09916272393226 4.663282514776968 0 0 0
395 1 24.939778858145853 17.999118714773985 3.104443771875265 0 0 0
396 2 29.616149441629812 17.099163255095036 4.663172913726842 0 0 0
397 1 28.057329144202374 17.999118303744908 3.1043163404902705 0 0 0
398 1 31.174880126263695 17.999120086084787 3.1042262524528312 0 0 0
399 2 32.733679330384 17.099165020339896 4.663104339939238 0 0 0
400 1 34.29243164524343 17.999120144581255 3.104179855633308 0 0 0
401 2 35.85121123223277 17.099164018841808 4.6630787604489345 0 0 0
402 1 37.40998286542741 17.999119658293704 3.104173478949608 0 0 0
403 2 38.96874620489103 17.099165026273145 4.663090246416056 0 0 0
404 1 40.52753399022623 17.9991198369181 3.104198669713352 0 0 0
405 2 42.08629246829306 17.099166223275244 4.663122296615206 0 0 0
406 1 1.5586988868828537 20.698996976735714 3.1052546549730855 0 0 0
407 1 4.6760925273604945 20.69899845039577 3.1052441011079246 0 0 0
409 1 7.793486685511753 20.69899936376072 3.1052321316069023 0 0 0
412 1 10.910892116243613 20.69899525447739 3.105203443887554 0 0 0
414 1 14.028286456449024 20.69893635547923 3.105152624053315 0 0 0
415 2 15.587242786208257 19.799032614454628 4.663924787089337 0 0 0
416 1 17.145898546224863 20.6989902674289 3.104912056225116 0 0 0
417 2 18.704780306125667 19.799033888611284 4.663709335022249 0 0 0
418 1 20.26345069100198 20.69898727322399 3.1047002531534886 0 0 0
419 1 23.381002845897893 20.698987182474337 3.104521359548825 0 0 0
420 2 21.82231664721378 19.799032170815288 4.663512849580561 0 0 0
421 1 26.49855390309172 20.69898659024809 3.1043760734738917 0 0 0
422 2 24.93985120961497 19.799032068207392 4.663351272562183 0 0 0
423 1 29.61610414288195 20.698987163717607 3.1042657313125748 0 0 0
424 2 28.05738387898612 19.79903061103808 4.66322323694884 0 0 0
425 2 31.174914703988872 19.799032734628675 4.663133368689631 0 0 0
426 1 32.733655838395826 20.69898866002822 3.1041973674885917 0 0 0
427 2 34.292444954668845 19.799033089373207 4.66308628412135 0 0 0
428 1 35.851207567039374 20.698987801726094 3.1041714070915734 0 0 0
429 2 37.409977655718514 19.79903191244877 4.663080633963946 0 0 0
430 1 38.968758516293136 20.69898782409863 3.1041839677505703 0 0 0
431 2 40.5275185702526 19.79903419824439 4.663104978066096 0 0 0
432 1 42.086309781287255 20.698988495172856 3.1042164580156237 0 0 0
435 1 3.117394794025245 23.398866627703743 3.1052503416941013 0 0 0
437 1 6.234790208096675 23.398867304835765 3.1052379753651413 0 0 0
438 1 9.352179733219744 23.398864759938323 3.1052209874281513 0 0 0
440 1 12.46955700748702 23.39888550625111 3.105216471158247 0 0 0
441 2 14.028461279044523 22.498902960625777 4.66400781116564 0 0 0
442 1 15.587135685882773 23.398848495564373 3.1050225086082235 0 0 0
443 2 17.14601302818806 22.498898393797987 4.663820623022902 0 0 0
444 1 18.704677340414143 23.398856296772255 3.1048046418115063 0 0 0
445 2 20.263552169693366 22.498900157580362 4.663608415189739 0 0 0
446 2 23.381083891394436 22.498900608063725 4.663428044611682 0 0 0
447 1 21.822227180638897 23.398856025807497 3.1046064771354205 0 0 0
448 2 26.49861749049561 22.498899086139968 4.663282514777177 0 0 0
449 1 24.939778858145804 23.398855076981604 3.104443771875298 0 0 0
450 2 29.616149441629695 22.49889961730288 4.663172913726914 0 0 0
451 1 28.057329144202157 23.398854665952676 3.1043163404904828 0 0 0
452 1 31.174880126263734 23.398856448292612 3.1042262524527686 0 0 0
453 2 32.73367933038384 22.498901382547544 4.663104339939163 0 0 0
454 1 34.29243164524345 23.398856506789087 3.104179855633391 0 0 0
455 2 35.85121123223288 22.498900381049676 4.663078760449101 0 0 0
456 1 37.409982865427715 23.39885602050189 3.1041734789496607 0 0 0
457 2 38.96874620489123 22.49890138848098 4.6630902464161155 0 0 0
458 1 40.52753399022623 23.398856199125966 3.1041986697132633 0 0 0
459 2 42.08629246829306 22.498902585483116 4.66312229661513 0 0 0
460 1 1.5586988868814782 26.09873333894279 3.1052546549708686 0 0 0
461 1 4.6760925273612814 26.09873481260393 3.10524410110934 0 0 0
463 1 7.793486685512605 26.098735725969092 3.105232131607109 0 0 0
466 1 10.910892116244707 26.098731616684955 3.1052034438871994 0 0 0
468 1 14.028286456449557 26.09867271768699 3.1051526240535408 0 0 0
469 2 15.58724278620919 25.198768976662656 4.663924787089342 0 0 0
470 1 17.145898546225233 26.09872662963719 3.1049120562251438 0 0 0
471 2 18.70478030612623 25.19877025081936 4.663709335022246 0 0 0
472 1 20.263450691002504 26.09872363543221 3.1047002531535357 0 0 0
473 1 23.3810028458983 26.098723544682205 3.104521359548814 0 0 0
474 2 21.822316647214265 25.198768533022854 4.663512849580549 0 0 0
475 1 26.498553903092066 26.098722952455606 3.104376073473951 0 0 0
476 2 24.93985120961519 25.198768430414866 4.663351272562151 0 0 0
477 1 29.616104142881962 26.09872352592544 3.1042657313126143 0 0 0
478 2 28.057383878986204 25.198766973245863 4.6632232369489515 0 0 0
479 2 31.174914703988833 25.198769096836294 4.6631333686894525 0 0 0
480 1 32.73365583839542 26.098725022235964 3.1041973674884895 0 0 0
481 2 34.292444954668426 25.198769451581047 4.663086284121372 0 0 0
482 1 35.85120756703905 26.098724163933948 3.104171407091621 0 0 0