LAMMPS data file via write_data, version 21 Nov 2023, timestep = 1230, units = metal

47602 atoms
3 atom types

0 1558.76999332191 xlo xhi
0 86.39580220313394 ylo yhi
0 50 zlo zhi
0 0 0 xy xz yz

Masses

1 95.94
2 32.065
3 32.065

Atoms # atomic

47602 3 1.5587503657876565 0.8999599266131645 1.545454246090278 0 0 0
35045 3 4.676302647727917 0.8999596077743124 1.5454338093656843 0 0 0
35046 3 7.793856641853655 0.8999580868417347 1.5454275624991645 0 0 0
35047 3 10.911404882627625 0.899956231662595 1.5454369558385213 0 0 0
35048 3 14.02895375339705 0.8999473931570845 1.5454550660804878 0 0 0
35049 3 17.146496616301214 0.8999477621349524 1.5454836314606024 0 0 0
35050 3 20.26402827518387 0.8999469383438766 1.545509650351917 0 0 0
35052 3 23.38157375565262 0.8999490261732757 1.5455350329106217 0 0 0
35059 3 26.49910829502423 0.8999142811666112 1.5455834080237023 0 0 0
35053 3 29.61662007069477 0.8999121455816811 1.545578700617888 0 0 0
35054 3 3.11752786749382 3.599824359358989 1.5454320640626076 0 0 0
35055 3 6.235081664671342 3.5998234499905593 1.5454214535296724 0 0 0
35056 3 9.352631485370685 3.599824001005633 1.5454247041623508 0 0 0
35057 3 12.470177971474401 3.5998216937056235 1.5454354565387256 0 0 0
35058 3 15.587729196090201 3.599823587216736 1.5454578487609292 0 0 0
35044 3 18.705266710203134 3.599826133263672 1.5454897129229643 0 0 0
35043 3 21.822802231606488 3.59982806064382 1.5455147775600087 0 0 0
35042 3 24.940336420690763 3.599819533099077 1.5455342621281998 0 0 0
35041 3 28.05786058776212 3.599812031662557 1.5455408732813638 0 0 0
35040 3 31.175389309195026 3.5998154198546355 1.5455258642301084 0 0 0
35039 3 1.5587509723254531 6.299693765539904 1.5454388940595223 0 0 0
35038 3 4.6763062791433825 6.299693833224579 1.5454190650432316 0 0 0
35037 3 7.793857092694028 6.299694073709141 1.5454175257185012 0 0 0
35036 3 10.911403972041354 6.2996960191033065 1.5454268112884617 0 0 0
35035 3 14.028956247200789 6.299700433798817 1.545446151683476 0 0 0
35034 3 17.146504454525235 6.299708268546456 1.5454788229541783 0 0 0
35033 3 20.264037710532108 6.299705786923556 1.545510680208539 0 0 0
35032 3 23.38156971845721 6.299720391083842 1.5455346650505353 0 0 0
35031 3 26.499095404281775 6.299711404729053 1.5455400459669524 0 0 0
35030 3 29.616614489380723 6.299705862633388 1.5455296326950367 0 0 0
35029 3 3.1175306712462767 8.99956404147897 1.5454235884438972 0 0 0
35028 3 6.235084296641539 8.999564001421543 1.5454143005722785 0 0 0
35051 3 9.352632100695574 8.999565858351088 1.5454213893447855 0 0 0
35061 3 12.470184833555612 8.999567015201759 1.545438227926552 0 0 0
35086 3 15.587735883567113 8.999569249561985 1.5454706395438156 0 0 0
35062 3 18.70529618283746 8.999592522353506 1.5455250517281764 0 0 0
35080 3 21.82278861808857 8.999597144354789 1.5455586244225545 0 0 0
35081 3 24.940360250392818 8.999601954087256 1.5455845973273197 0 0 0
35082 3 28.057851515623046 8.999628446937434 1.545598734893288 0 0 0
35083 3 31.175346776153262 8.999591739462343 1.545554012025734 0 0 0
35084 3 1.5587663101299924 11.699433454730295 1.5454323949006918 0 0 0
35085 3 4.676308747804257 11.699440291255295 1.5454232897123101 0 0 0
35087 3 7.793856836779974 11.699438202781163 1.5454232006824657 0 0 0
35094 3 10.911406748511435 11.699437025341675 1.5454326013138178 0 0 0
35088 3 14.028962801897883 11.69943104470429 1.5454527703554264 0 0 0
35089 3 17.146538907795815 11.699435068349432 1.5455055561618551 0 0 0
35090 3 20.264047496879382 11.699428185566234 1.5454230884179405 0 0 0
35091 3 23.381573943814832 11.699438903533641 1.5455843456302023 0 0 0
35092 3 26.49909923436943 11.699423885454909 1.545467351094656 0 0 0
35093 3 29.6165997282477 11.699422640743288 1.5454551463155368 0 0 0
29396 2 31.175412143108908 41.39798634923478 4.6633418762891266 0 0 0
35079 3 3.117540457771823 14.39931242646441 1.5454422935996484 0 0 0
35078 3 6.235078599516152 14.399313579252475 1.5454354636004621 0 0 0
35077 3 9.35262701267895 14.399308039942108 1.5454361031544126 0 0 0
35076 3 12.470169628783692 14.399300066381667 1.5454434158300114 0 0 0
35075 3 15.587720806966752 14.399293912959036 1.5454548866653615 0 0 0
35074 3 18.70527760236294 14.399252242214796 1.5455066713980565 0 0 0
35073 3 21.822790709243787 14.399249350737334 1.5455278024435175 0 0 0
35072 3 24.940335126715684 14.399241109662068 1.54553592364177 0 0 0
35071 3 28.057853678725284 14.399238684137451 1.5455304612557956 0 0 0
35070 3 31.17537361666907 14.39923851334888 1.5455117575308746 0 0 0
35069 3 1.558771598482564 17.099185428174437 1.5454636115601341 0 0 0
35068 3 4.676302399698707 17.099190360790885 1.5454592767049369 0 0 0
35067 3 7.793850682314787 17.0991846335763 1.5454522546166123 0 0 0
35066 3 10.9113931127537 17.099174559863425 1.5454510907807022 0 0 0
35065 3 14.02893956942157 17.09917057017566 1.5454495590222663 0 0 0
35064 3 17.14648990019413 17.09915739621044 1.5454606273854707 0 0 0
35063 3 20.264019233544953 17.099146591225622 1.5454738805573185 0 0 0
35027 3 23.38155829707004 17.099129770686577 1.545473893388442 0 0 0
35026 3 26.499095117882266 17.099135709871025 1.545477856486301 0 0 0
35025 3 29.616621210546423 17.099140794900784 1.5454695297394134 0 0 0
35647 3 3.147108341331557e-05 19.799076867261306 1.5455102565881431 1 0 0
35016 3 3.1175104322245946 19.799078573077225 1.5455076036882114 0 0 0
34988 3 6.23506966996007 19.799052237208194 1.5454713520218977 0 0 0
34987 3 9.352617834585967 19.799044370393126 1.5454613174699916 0 0 0
34986 3 12.47016599987808 19.79904258121653 1.5454551259410718 0 0 0
34985 3 15.587714169636676 19.799043386854038 1.5454601445889729 0 0 0
34984 3 18.705247617233283 19.799035748129274 1.5454673822475888 0 0 0
34983 3 21.822779690198878 19.79902848566147 1.5454554126435773 0 0 0
34982 3 24.94032539198747 19.79902143495094 1.5454497723815344 0 0 0
34981 3 28.0578643712617 19.799024479464904 1.545454779527136 0 0 0
34980 3 31.175396675371434 19.799029909846645 1.5454507265794757 0 0 0
34979 3 1.558770707786813 22.498921031272133 1.5454188996539784 0 0 0
34978 3 4.676265393224119 22.498930986796438 1.5455181965289002 0 0 0
34977 3 7.793838457257817 22.49891671622499 1.545475087801385 0 0 0
34976 3 10.911393906258615 22.4989186078921 1.5454688879039467 0 0 0
34975 3 14.02894232618518 22.498923798708823 1.5454748339581579 0 0 0
34989 3 17.146484212052176 22.498923965611084 1.5454824824953888 0 0 0
34974 3 20.26401045185174 22.49891554030406 1.5454757793417813 0 0 0
34972 3 23.381545171231284 22.498921037964447 1.5454600851501454 0 0 0
34971 3 26.49909054424673 22.49890943395853 1.5454547354103363 0 0 0
34970 3 29.61663509725848 22.498906579847507 1.5454548635519425 0 0 0
19987 2 1.2085057832905239e-05 3.59983439278676 4.663275813768353 1 0 0
34969 3 3.1175227370759795 25.198746861144183 1.545547485687082 0 0 0
34968 3 6.235074857738066 25.198789338938685 1.5454965420108853 0 0 0
34967 3 9.352622481470403 25.198786594327228 1.5454840024017535 0 0 0
34966 3 12.470166577191856 25.198792968365552 1.5454884028963778 0 0 0
34965 3 15.587715460794158 25.19878606114885 1.5454988802377918 0 0 0
34964 3 18.705270205570713 25.198803211011043 1.5455196657631327 0 0 0
34963 3 21.82275771104557 25.198806647426647 1.5455089263812876 0 0 0
34962 3 24.940313854417976 25.198784163207325 1.5454755855329163 0 0 0
34961 3 28.057859060465354 25.198778091631272 1.5454636002177338 0 0 0
34960 3 31.17540779021302 25.198778056115035 1.545461601175013 0 0 0
34959 3 1.558743045482785 27.898633356812706 1.5455507111414697 0 0 0
34973 3 4.676301014212405 27.898632674966034 1.5455148736019209 0 0 0
34990 3 7.793873715894212 27.89867050242292 1.5455201597617063 0 0 0
34991 3 10.911374242560743 27.898671479943175 1.5455170066300672 0 0 0
34992 3 14.028940778243923 27.898645825603147 1.545496757748873 0 0 0
35010 3 17.146509787756173 27.89864226775101 1.5455134932121604 0 0 0
35011 3 20.26401666305009 27.89863600101407 1.5453942740084061 0 0 0
35012 3 23.38151936583105 27.89865244665569 1.545506749935933 0 0 0
35013 3 26.499083252763203 27.898650257669654 1.5454758467859975 0 0 0
35014 3 29.61662924112007 27.898652267762063 1.5454687914547967 0 0 0
11360 1 29.61656120666159 42.29789025803712 3.1044666808548333 0 0 0
35015 3 3.11755060971333 30.598487959828894 1.5455016874060774 0 0 0
35017 3 6.235120235566521 30.59850400445869 1.5455190376327659 0 0 0
35024 3 9.35262594686108 30.598504846285653 1.5454028185250896 0 0 0
35018 3 12.470129141905858 30.598510814034995 1.5455086921354946 0 0 0
35019 3 15.587699832334895 30.598499223179665 1.545471624825804 0 0 0
35020 3 18.70526212753613 30.598468599591204 1.5454904911846434 0 0 0
35021 3 21.822784435606163 30.598475316009605 1.5454991785945382 0 0 0
35022 3 24.940334273327256 30.598523820004285 1.5454804571514276 0 0 0
35023 3 28.057865593215737 30.598525112016564 1.5454825431436658 0 0 0
35009 3 31.17539451530914 30.59853046195754 1.545475889102948 0 0 0
35008 3 1.5587737619972004 33.298345937459295 1.5454807457861173 0 0 0
35007 3 4.676323771648251 33.29835796795721 1.545477798546326 0 0 0
35006 3 7.793871624084055 33.29832966638612 1.5455093115811234 0 0 0
35005 3 10.911384873099632 33.298334551368654 1.5455056778689418 0 0 0
35004 3 14.02893524468095 33.298370575238465 1.5454661677145882 0 0 0
35003 3 17.146484615557124 33.29836713349051 1.5454547656087 0 0 0
35002 3 20.26403288484026 33.29836798695335 1.5454606943276645 0 0 0
35001 3 23.38157917646109 33.29837856447261 1.5454774320906617 0 0 0
35000 3 26.49913057428538 33.29841959179128 1.5455155345504987 0 0 0
34999 3 29.616608740458084 33.29842108992931 1.5455204507787068 0 0 0
29399 2 18.705252341390437 41.39797697937935 4.663262584265332 0 0 0
34998 3 3.1175502165804843 35.998224131098034 1.5454549489130611 0 0 0
34997 3 6.235098225911307 35.99821860034558 1.5454614177622052 0 0 0
34996 3 9.35263227657995 35.99822056964124 1.545469772995254 0 0 0
34995 3 12.47016868237753 35.99822765429684 1.545464832032959 0 0 0
34994 3 15.587708815514198 35.99823960902578 1.545456888413942 0 0 0
34993 3 18.70525850145232 35.99824133565492 1.5454464428228434 0 0 0
35060 3 21.822822637951404 35.99824972452089 1.5454607682574044 0 0 0
35095 3 24.94039329531025 35.99827370819502 1.5455199390792163 0 0 0
35096 3 28.057869776308788 35.99826575026891 1.545419893882954 0 0 0
35097 3 31.175352707312186 35.99828126693724 1.54553448585901 0 0 0
35185 3 1.5587785810029269 38.69810241084304 1.5454407861008947 0 0 0
35186 3 4.676320008079098 38.6980991725116 1.5454406821285251 0 0 0
35187 3 7.79386290894625 38.6980967477738 1.5454434469752705 0 0 0
35188 3 10.91140486197513 38.698100683612395 1.5454476036645617 0 0 0
35189 3 14.028945336203488 38.69810332602394 1.5454555089497501 0 0 0
35190 3 17.146479590795447 38.698111091516864 1.5454486141955315 0 0 0
35192 3 20.26404236021494 38.69811760231721 1.5454522921008818 0 0 0
35199 3 23.38159976534472 38.69812499462852 1.545494028833471 0 0 0
35193 3 26.499151936414343 38.69811591582966 1.5455819178484882 0 0 0
35194 3 29.616591090701274 38.69811937160733 1.545582934653163 0 0 0
35195 3 3.117547878618068 41.39797904339356 1.5454344722348419 0 0 0
35196 3 6.2350892705026935 41.39797635387989 1.545432565609017 0 0 0
35197 3 9.352634342424244 41.39797810018981 1.5454347764362018 0 0 0
35198 3 12.470178759482836 41.39797617834306 1.5454442532581776 0 0 0
35184 3 15.587714609643632 41.397975810072865 1.5454525246675912 0 0 0
35183 3 18.705258588214267 41.397981699986296 1.5454491401035844 0 0 0
35182 3 21.82281997400842 41.397977275785614 1.5454724599067293 0 0 0
35181 3 24.940386750464906 41.39796607317938 1.545536218132899 0 0 0
35180 3 28.057874887851295 41.39796612814044 1.5454409591907716 0 0 0
35179 3 31.17537153278517 41.39798653648329 1.5455490027733279 0 0 0
29618 2 1.558776773664614 0.8999657917247335 4.663266938437684 0 0 0
29397 2 24.9403182238416 41.39798533762498 4.663330455232912 0 0 0
11129 1 3.1175369712549994 1.7999164237223053 3.1043462948791363 0 0 0
29617 2 4.676316341639121 0.8999630970845257 4.663246910661851 0 0 0
11131 1 6.235082907874498 1.7999149216516428 3.1043333000414166 0 0 0
29616 2 7.793853887221871 0.8999604534756438 4.663240776203227 0 0 0
11132 1 9.352627067210666 1.7999141726251304 3.1043362039804774 0 0 0
11134 1 12.470170300509425 1.7999118518522832 3.104348505333877 0 0 0
29615 2 10.91139066848057 0.8999596043694937 4.663250850579856 0 0 0
11136 1 15.587710687913207 1.7999126242104169 3.1043708510259265 0 0 0
29614 2 14.028929772011548 0.899957801243075 4.663268297091932 0 0 0
11137 1 18.705250360896862 1.799914318539233 3.104401746302681 0 0 0
29613 2 17.146464836216893 0.8999669672655177 4.663298768089443 0 0 0
29612 2 20.264006831019756 0.899961057141862 4.6633243405007 0 0 0
11140 1 21.82278798681454 1.799912813420813 3.104424897198642 0 0 0
29611 2 23.381545486356643 0.8999626221586436 4.663348391496635 0 0 0
11142 1 24.94032737645095 1.7999080738812956 3.104452378954427 0 0 0
29610 2 26.49908388452009 0.8999738640963079 4.66337670610091 0 0 0
11144 1 28.057865775151907 1.7999164885847185 3.10447032252983 0 0 0
29609 2 29.616651379391307 0.8999714820153603 4.663370324894671 0 0 0
11145 1 31.175407034459706 1.7999105674746498 3.104446412189294 0 0 0
11146 1 1.5587651129278148 4.49978328696413 3.104348018137459 0 0 0
11359 1 26.499180284364115 42.29788545837722 3.1044611062402336 0 0 0
11147 1 4.67631107608217 4.499782273670235 3.104328435842825 0 0 0
29608 2 3.117547747536654 3.5998332611458137 4.6632450945598345 0 0 0
11149 1 7.793855273848733 4.499782407945514 3.1043264753262716 0 0 0
29607 2 6.235085046213763 3.5998315812733876 4.663235247787851 0 0 0
29606 2 9.35262336023355 3.5998300649115844 4.66323775996253 0 0 0
11118 1 10.911398399659557 4.499782853400259 3.104334187829968 0 0 0
29605 2 12.470161433204334 3.599830918408824 4.663248363278882 0 0 0
11102 1 14.028941043939296 4.499782249448786 3.104348377602325 0 0 0
29604 2 15.58769509390346 3.599829348378365 4.6632709711213405 0 0 0
11090 1 17.146482780899646 4.499786615577864 3.104380701060319 0 0 0
29440 2 18.70523830849912 3.5998306772023354 4.6633026794547785 0 0 0
11092 1 20.264021636042628 4.49978646285063 3.1044110358641235 0 0 0
11093 1 23.381560310838733 4.499789811041766 3.1044320693113647 0 0 0
29634 2 21.8227775958881 3.599827937568923 4.663328027177728 0 0 0
11095 1 26.499096585707306 4.499788137710643 3.1044436034486913 0 0 0
29439 2 24.940322047437622 3.599829826455588 4.6633477926206135 0 0 0
11097 1 29.616629827748305 4.499786876541587 3.1044364382968106 0 0 0
29374 2 28.05786739895225 3.599843814938382 4.663356840555323 0 0 0
29277 2 31.175402447391146 3.599830559046466 4.663341595280885 0 0 0
29276 2 1.5587802242489772 6.299698563567424 4.6632515366694625 0 0 0
29398 2 21.822783945032377 41.397982264709476 4.663286528711403 0 0 0
11103 1 3.117538997882663 7.199650620147641 3.1043314321399205 0 0 0
29275 2 4.676316046074547 6.299695953203772 4.663232172805073 0 0 0
11104 1 6.235082970897871 7.1996506561498865 3.1043219240508186 0 0 0
29274 2 7.793851770121643 6.299696111303427 4.6632314973656195 0 0 0
11105 1 9.352625191620337 7.199651223564388 3.1043274463957027 0 0 0
11106 1 12.47016948042343 7.199651719892688 3.104342305894842 0 0 0
29273 2 10.911389422291 6.299695904438136 4.6632396491406665 0 0 0
11108 1 15.587713429204365 7.199652939282557 3.104372221642542 0 0 0
29272 2 14.028927395394122 6.29969031260515 4.6632594611777005 0 0 0
11110 1 18.705260033358147 7.1996608464687695 3.1044075419238664 0 0 0
29271 2 17.146469688542854 6.299695531184263 4.663292063324415 0 0 0
29270 2 20.264007411464167 6.299693058008909 4.663325455240689 0 0 0
11113 1 21.822785274041863 7.1996631392759465 3.1044386796305434 0 0 0
29269 2 23.381552271254023 6.299698054849639 4.663347774686425 0 0 0
11115 1 24.94033579648897 7.199664528335453 3.1044574459354233 0 0 0
29268 2 26.499099273506236 6.299696034890866 4.66335617778245 0 0 0
11150 1 28.05786030618466 7.199669280156461 3.1044505830485396 0 0 0
29267 2 29.616632420524944 6.299697917487002 4.663344648124355 0 0 0
11151 1 31.175387612220227 7.199657476003109 3.1044324928560476 0 0 0
11152 1 1.5587672939836335 9.899518451883207 3.1043392332864994 0 0 0
20013 2 2.2430760285953083e-06 8.999568965120957 4.6632567021746105 1 0 0
11153 1 4.676312016785867 9.899519586854753 3.104322920789309 0 0 0
29266 2 3.1175490332755658 8.999563917648766 4.663236123766468 0 0 0
11188 1 7.793854555633602 9.899519418023747 3.104324561889825 0 0 0
29265 2 6.235081819755922 8.999562938020794 4.663228691394653 0 0 0
29264 2 9.35262212070098 8.999562694124487 4.66323419508083 0 0 0
11191 1 10.911399247136188 9.899520118352541 3.104334270830418 0 0 0
29263 2 12.470157885666351 8.999563825806927 4.663252189656201 0 0 0
11192 1 14.028944541264577 9.899520004909228 3.1043607409884975 0 0 0
29262 2 15.587695765866442 8.99956152507296 4.663285599917154 0 0 0
11194 1 17.14648475522329 9.899520171409348 3.1044020797564564 0 0 0
29261 2 18.705239019357 8.999561385171024 4.663319664198734 0 0 0
11196 1 20.264024351372097 9.899612965428856 3.104462393154652 0 0 0
11197 1 23.381561096404393 9.899522697780794 3.10447433276911 0 0 0
29260 2 21.822772924529072 8.999560930810302 4.663355040225113 0 0 0
11199 1 26.499095037839567 9.899622642790739 3.104516437328755 0 0 0
29259 2 24.940325140631256 8.999558481488354 4.663379010523788 0 0 0
11201 1 29.616626489819474 9.899616673595395 3.1044988049603495 0 0 0
29258 2 28.057868515397665 8.999550428679203 4.663371966580644 0 0 0
29257 2 31.175409424292166 8.999555834366866 4.663347911980749 0 0 0
29256 2 1.5587731499540327 11.699430587015494 4.6632455326474265 0 0 0
11357 1 23.38157644182182 42.297932564168704 3.1043966334285735 0 0 0
11205 1 3.117540949950796 12.599389599112044 3.1043384100165663 0 0 0
29255 2 4.676315875384943 11.699425677501074 4.663236169779041 0 0 0
11207 1 6.23508341379468 12.59938978238855 3.104332054753139 0 0 0
29254 2 7.793853087010881 11.699427701094843 4.663235955726134 0 0 0
11208 1 9.352626842639925 12.59938844722667 3.104335757326897 0 0 0
11210 1 12.470173943468563 12.599385994453582 3.104348243419412 0 0 0
29253 2 10.911392309587407 11.699429051140529 4.663245670104794 0 0 0
11212 1 15.587725058214692 12.599389727349843 3.104370349918988 0 0 0
29252 2 14.028938317197701 11.69943500962522 4.663265460436555 0 0 0
11214 1 18.70533676742318 12.59934109728069 3.1044387522205206 0 0 0
29251 2 17.14646792801152 11.6994402456201 4.66329923544162 0 0 0
11216 1 21.822727378594514 12.59934633073782 3.1044652552436673 0 0 0
29250 2 23.38155361641321 11.69945064677265 4.663361100782292 0 0 0
11183 1 24.940400614595283 12.599347114527008 3.104485164381821 0 0 0
11154 1 28.057856695405196 12.599318070917963 3.1044617395772143 0 0 0
11155 1 31.175308728918164 12.5993419150849 3.1044619004186167 0 0 0
11156 1 1.5587707532675974 15.299259416911397 3.104355223828742 0 0 0
11157 1 4.676311138285044 15.299262554012332 3.1043526230041203 0 0 0
29308 2 3.117542059926822 14.399294642303426 4.663255379112603 0 0 0
11159 1 7.793853271651219 15.299258520440738 3.1043453959194225 0 0 0
29279 2 6.235085758790705 14.399293151166212 4.663248909510511 0 0 0
29307 2 9.352621675937364 14.39929532524124 4.663248909161981 0 0 0
11162 1 10.91139647337816 15.299255554599972 3.1043503159249357 0 0 0
29306 2 12.470165556780282 14.399296901128572 4.6632573560966994 0 0 0
11163 1 14.028939497170501 15.299252778119667 3.1043533543967556 0 0 0
29305 2 15.587703351307507 14.399302178424835 4.663270004787407 0 0 0
11165 1 17.146484268304306 15.299242828445552 3.1043712021646086 0 0 0
29304 2 18.705235792500424 14.399309261463918 4.66330040986893 0 0 0
11167 1 20.26402356146492 15.299252099812865 3.1044041007829217 0 0 0
11168 1 23.381560068491467 15.299233045575875 3.1044090231628267 0 0 0
29303 2 21.82279076237436 14.399312215232124 4.663323871051358 0 0 0
11170 1 26.499093770626626 15.299244430925263 3.104413835344364 0 0 0
29302 2 24.940321397734547 14.39931635774033 4.663334510963508 0 0 0
11172 1 29.61662729903218 15.299245483533838 3.1044006685976067 0 0 0
29301 2 28.05786790905783 14.399306067801648 4.663315174120276 0 0 0
29300 2 31.17541187709851 14.399318878924873 4.663307561789355 0 0 0
29299 2 1.5587740468733795 17.09915892367957 4.663279008692209 0 0 0
10598 1 1.0682470495015171e-05 17.999133699855125 3.104380301257 1 0 0
11177 1 3.1175342185769597 17.999135293787347 3.1043782378077918 0 0 0
29298 2 4.676311713167493 17.099165297320116 4.66327299805792 0 0 0
11179 1 6.235080408676565 17.999128966678786 3.104368141771398 0 0 0
29297 2 7.793852928499947 17.09915831351392 4.663265853042574 0 0 0
11180 1 9.352623725656358 17.999126652614915 3.1043640144829974 0 0 0
11181 1 12.4701665937182 17.99912375909793 3.10435872580518 0 0 0
29296 2 10.911396491430672 17.099163032856765 4.663264379326557 0 0 0
11283 1 15.587709877175755 17.999120728959433 3.104360905806677 0 0 0
29295 2 14.028934697613249 17.09916116518765 4.663262942507902 0 0 0
11546 1 18.70524956338182 17.999120049531736 3.1043738651814072 0 0 0
29294 2 17.14647227139637 17.099160413839193 4.663273145712302 0 0 0
29293 2 20.2640183871303 17.099176844757608 4.663289843111227 0 0 0
11517 1 21.822788797525032 17.99911648189234 3.1043701384943154 0 0 0
29292 2 23.381554803166978 17.09917186102753 4.663286699049596 0 0 0
11519 1 24.940324856666084 17.99911407701084 3.104370884060023 0 0 0
29291 2 26.499094620294343 17.099178010719225 4.663293250415017 0 0 0
11521 1 28.057861422442876 17.99911858685284 3.10437408099717 0 0 0
29290 2 29.616634450204877 17.09917439217842 4.663285391567931 0 0 0
11522 1 31.175395982000428 17.999117686720016 3.1043615331987855 0 0 0
11523 1 1.5587712309616355 20.699087798608957 3.1044396502218894 0 0 0
11524 1 4.6763115475505765 20.698997589352167 3.104397709801 0 0 0
29289 2 3.1175455371318446 19.799026404687407 4.663300573265782 0 0 0
11526 1 7.793850691028019 20.69899673679198 3.1043757820663305 0 0 0
29288 2 6.235088992313606 19.799030901074005 4.6632859857440545 0 0 0
29287 2 9.352627748512951 19.79903632683751 4.663274989607341 0 0 0
11528 1 10.911394458986287 20.698995474186262 3.1043666979858706 0 0 0
29286 2 12.470166765922102 19.799033552778265 4.663266989248868 0 0 0
11530 1 14.02893803683511 20.69899542746303 3.10436719480175 0 0 0
29285 2 15.587704383344938 19.799030779500107 4.663272390379241 0 0 0
11532 1 17.14648004764635 20.698996348329665 3.104376119838769 0 0 0
29284 2 18.705248948210258 19.799034446553893 4.663280529761059 0 0 0
11534 1 20.26401809173225 20.69899252637782 3.104371769101418 0 0 0
11535 1 23.381554563755092 20.698992339505576 3.1043544156605107 0 0 0
29283 2 21.822793511341242 19.799035144719074 4.663269056430425 0 0 0
11537 1 26.499092677802583 20.69898991442871 3.1043557919075204 0 0 0
29282 2 24.940321614526543 19.799039024263465 4.663262958364779 0 0 0
11539 1 29.61663262394009 20.698991097470344 3.1043596745745443 0 0 0
29281 2 28.057861365564698 19.799042492506207 4.663268321326087 0 0 0
29280 2 31.17540487113723 19.799034202871805 4.663264575155586 0 0 0
11544 1 3.117463635270436 23.39881741336836 3.104458346526796 0 0 0
29249 2 4.67633002721976 22.498900971854773 4.663311376111416 0 0 0
11545 1 6.235074651950346 23.39887070323706 3.1043949940217397 0 0 0
29248 2 7.793854942715027 22.49890381158139 4.663288211821882 0 0 0
11514 1 9.35262047369733 23.39886528054544 3.104380869802608 0 0 0
11483 1 12.470164425023597 23.398868131125496 3.1043840148433475 0 0 0
29247 2 10.911391791415781 22.498899885528015 4.663281718390643 0 0 0
11485 1 15.587710408553223 23.398865790659276 3.1043957182361717 0 0 0
29246 2 14.02893275777133 22.498896312298964 4.663287427759661 0 0 0
11487 1 18.70525636596472 23.398869048061208 3.1043970514960657 0 0 0
29213 2 17.146483218418222 22.49890032395972 4.663295702790258 0 0 0
29212 2 20.264023465004367 22.49889686988829 4.663291042905399 0 0 0
11490 1 21.82277821153817 23.39886841558026 3.1043828288483057 0 0 0
29211 2 23.38155591325015 22.498897322873557 4.663272274043711 0 0 0
11492 1 24.940323442023058 23.39886245394314 3.1043704845652824 0 0 0
29210 2 26.499096166039447 22.498897677577087 4.66326849791947 0 0 0
11493 1 28.05786397388859 23.39886078784618 3.1043643403781127 0 0 0
29209 2 29.61663480284867 22.49890294727556 4.663268055697207 0 0 0
11494 1 31.17540489085711 23.398862685124232 3.104365460791753 0 0 0
11495 1 1.5587759713631935 26.098726560285307 3.1044533532397836 0 0 0
11496 1 4.676312210253758 26.098720703081444 3.1044226566944437 0 0 0
29208 2 3.117559722726469 25.19876765723297 4.663342771337353 0 0 0
11498 1 7.793860005985876 26.098737062902526 3.1043991409993255 0 0 0
29207 2 6.235098906636669 25.19877195474992 4.6633127613422225 0 0 0
29206 2 9.352625360376527 25.198770956120708 4.663298124941099 0 0 0
11501 1 10.911388351525382 26.09873947693989 3.104397029834671 0 0 0
29205 2 12.47015872387634 25.19877513466476 4.663301816793593 0 0 0
11503 1 14.028938825934906 26.098734586249947 3.104404744295041 0 0 0
29204 2 15.58770503048076 25.19877033287411 4.663314695650275 0 0 0
11505 1 17.146479970494898 26.098731113385906 3.104416495889501 0 0 0
29203 2 18.70525555756718 25.19876679672838 4.663313099372612 0 0 0
11507 1 20.264018271374255 26.09882160984482 3.1044367253112615 0 0 0
11508 1 23.381555466919984 26.098731382146557 3.1043999130358184 0 0 0
29202 2 21.822788661082313 25.19876280541839 4.663302445175507 0 0 0
11510 1 26.49909252821076 26.098732678191357 3.104379500615959 0 0 0
29201 2 24.940331612784757 25.19876623863911 4.663291012484659 0 0 0
11511 1 29.61663452360374 26.098732340493573 3.1043700788005566 0 0 0
29214 2 28.057868856565193 25.1987707656396 4.663276963842545 0 0 0
29200 2 31.175405970458105 25.198774096858227 4.663273861776914 0 0 0
29198 2 1.5587813148845495 27.8986494170403 4.663346170005316 0 0 0
11356 1 20.264027936866025 42.29793416318269 3.1043625125786196 0 0 0
11548 1 3.117538378648216 28.798594530718702 3.1044264388181277 0 0 0
29197 2 4.676316562692417 27.89863796208492 4.663330056171837 0 0 0
11583 1 6.235080795495661 28.798591950816395 3.1044182972993375 0 0 0
29196 2 7.79386266065417 27.89863380994812 4.663313573929405 0 0 0
11584 1 9.352626329876994 28.798686698649675 3.104437537284991 0 0 0
11586 1 12.470172093342697 28.798599276936734 3.104409279300527 0 0 0
29195 2 10.911397400575114 27.898639461824025 4.663310293502644 0 0 0
11588 1 15.587719279353907 28.79860307841727 3.1043969295488996 0 0 0
29194 2 14.028949145608562 27.898649152581953 4.663311088773525 0 0 0
11590 1 18.70532661942955 28.79855456885579 3.104422396180595 0 0 0
29193 2 17.146483309814887 27.89865578682746 4.663308223136012 0 0 0
11592 1 21.82270817291149 28.798555015047715 3.104424874665437 0 0 0
29192 2 23.381561020095674 27.898649396083986 4.6632994530307394 0 0 0
11594 1 24.94031673019422 28.798609497601788 3.104388098366193 0 0 0
29191 2 26.499092299591222 27.89864431738744 4.66328900676172 0 0 0
11596 1 28.057860631327063 28.798604353180078 3.104382444116752 0 0 0
29190 2 29.616635016805336 27.89864087222899 4.663281416049056 0 0 0
11597 1 31.175402867990623 28.79860552145356 3.10437548873233 0 0 0
11598 1 1.558780740484912 31.498446393126088 3.104405559085615 0 0 0
10717 1 7.417302124317848e-05 23.398822609668645 3.1044525386616413 1 0 0
11599 1 4.676325997926441 31.49846076716038 3.1043984872798944 0 0 0
29189 2 3.1175579027643643 30.598516914295963 4.663317692451403 0 0 0
11601 1 7.793934821171681 31.498414473578457 3.104435721229754 0 0 0
29188 2 6.2350839224038905 30.59851698048547 4.663312853588149 0 0 0
11604 1 10.911321655596142 31.49841807345418 3.1044316891032575 0 0 0
29199 2 12.470181652096446 30.598523670767197 4.66330217469447 0 0 0
11606 1 14.028932684195539 31.498468015093533 3.104380575635657 0 0 0
29215 2 15.587711555360748 30.598524077555954 4.663286971636884 0 0 0
11608 1 17.14647993813319 31.49845598199167 3.1043683431728373 0 0 0
29216 2 18.705241851731312 30.598519943840312 4.663283962036952 0 0 0
11610 1 20.264020587885838 31.498467072016993 3.104382615784149 0 0 0
11581 1 23.38155930296956 31.498462438337377 3.104386006824787 0 0 0
29217 2 21.8227915664591 30.598516045843304 4.663292922149443 0 0 0
11580 1 26.499104489093565 31.498480857673034 3.104393185008257 0 0 0
29245 2 24.940330116107305 30.59851901921757 4.66329542037484 0 0 0
11578 1 29.616626809583696 31.498480905469208 3.1043946190561686 0 0 0
29244 2 28.057864245662493 30.598511174877046 4.66329788680786 0 0 0
29243 2 31.175404453843232 30.598512797262927 4.663288658586747 0 0 0
29242 2 1.5587829867496774 33.2983785400162 4.6632939728525615 0 0 0
20130 2 2.7957801043377445e-06 14.399293384278387 4.663256184002424 1 0 0
11553 1 3.117549001149491 34.19832160853132 3.1043758566765893 0 0 0
29241 2 4.676318050433306 33.29837855886564 4.663292641215863 0 0 0
11555 1 6.235091575525068 34.19831639308072 3.1043842067296157 0 0 0
29240 2 7.793853360995636 33.298379077890445 4.663302530136258 0 0 0
11556 1 9.352629743781614 34.198328037458296 3.1043984779305966 0 0 0
11558 1 12.470169389417348 34.19831969647348 3.104380170989649 0 0 0
29239 2 10.911410199594561 33.29838059025089 4.663299088246445 0 0 0
11560 1 15.587713536551263 34.19832841441187 3.1043650309460458 0 0 0
29238 2 14.028947203751498 33.29837925553697 4.663282164472077 0 0 0
11561 1 18.705255255519702 34.19833130857961 3.104357929048189 0 0 0
29237 2 17.14648687349524 33.298375722188744 4.6632678286729075 0 0 0
29236 2 20.26402011983918 33.298387750906 4.6632752961501085 0 0 0
11564 1 21.822798065704802 34.19833558951199 3.104369926153323 0 0 0
29235 2 23.381553321735066 33.29837787802303 4.663292286561743 0 0 0
11566 1 24.94033347407206 34.19834172782968 3.104403667654819 0 0 0
29234 2 26.499099694325025 33.29837480813737 4.66330978383268 0 0 0
11568 1 28.057867583374797 34.1984357195469 3.104444293190118 0 0 0
29233 2 29.61663201287403 33.29837511824409 4.663314554590228 0 0 0
11569 1 31.17539921781969 34.19834704066998 3.104415241278077 0 0 0