LAMMPS data file via write_data, version 2 Aug 2023, timestep = 10492, units = metal

47200 atoms
3 atom types

0 1558.7688026753574 xlo xhi
0 86.39579532850358 ylo yhi
0 50 zlo zhi
0 0 0 xy xz yz

Masses

1 95.94
2 32.065
3 32.065

Atoms # atomic

1 3 1.5587679749624015 0.8999560134697591 1.5454403159542374 0 0 0
2 3 4.6763055803081555 0.8999560134712478 1.5454403159523151 0 0 0
3 3 7.793843185655814 0.8999560134742478 1.5454403159525176 0 0 0
4 3 10.911380791008746 0.8999560134689072 1.5454403159531884 0 0 0
5 3 14.028918396363235 0.8999560134705549 1.545440315952125 0 0 0
6 3 17.14645600171307 0.8999560134711352 1.5454403159517864 0 0 0
7 3 20.263993607062158 0.8999560134709519 1.545440315952721 0 0 0
8 3 23.381531212411563 0.8999560134705488 1.5454403159523022 0 0 0
9 3 26.499068817760765 0.8999560134718557 1.5454403159520553 0 0 0
10 3 29.61660642311087 0.8999560134710937 1.5454403159523842 0 0 0
11 3 3.1175367776305682 3.5998246174877586 1.5454403159547017 0 0 0
12 3 6.235074382980649 3.5998246174896105 1.5454403159541787 0 0 0
13 3 9.352611988335319 3.5998246174848023 1.5454403159516166 0 0 0
14 3 12.470149593687582 3.599824617484992 1.5454403159520185 0 0 0
15 3 15.5876871990387 3.5998246174865973 1.5454403159520154 0 0 0
16 3 18.705224804388443 3.5998246174874295 1.545440315952044 0 0 0
17 3 21.822762409737066 3.599824617486961 1.5454403159526608 0 0 0
18 3 24.940300015086617 3.599824617487235 1.5454403159520607 0 0 0
19 3 28.057837620435492 3.5998246174870134 1.5454403159519712 0 0 0
20 3 31.175375225785544 3.599824617486746 1.545440315952255 0 0 0
21 3 1.55876797495606 6.299693221501823 1.5454403159565866 0 0 0
22 3 4.676305580307182 6.29969322149936 1.5454403159540098 0 0 0
23 3 7.793843185658586 6.299693221503995 1.54544031595397 0 0 0
24 3 10.911380791011776 6.299693221499729 1.5454403159515588 0 0 0
25 3 14.028918396363292 6.299693221502654 1.5454403159523602 0 0 0
26 3 17.146456001713272 6.299693221502876 1.5454403159518384 0 0 0
27 3 20.263993607062115 6.299693221503401 1.5454403159519796 0 0 0
28 3 23.381531212410973 6.2996932215028005 1.545440315952519 0 0 0
29 3 26.499068817761515 6.299693221503399 1.5454403159523507 0 0 0
30 3 29.616606423111282 6.299693221502437 1.5454403159518324 0 0 0
31 3 3.1175367776384344 8.999561825519939 1.54544031595402 0 0 0
32 3 6.2350743829843776 8.999561825515917 1.5454403159539103 0 0 0
33 3 9.352611988336863 8.99956182551701 1.5454403159538546 0 0 0
34 3 12.470149593687408 8.999561825519368 1.5454403159516212 0 0 0
35 3 15.587687199038227 8.999561825517471 1.5454403159517152 0 0 0
36 3 18.705224804387356 8.999561825519931 1.5454403159518029 0 0 0
37 3 21.822762409737617 8.999561825518734 1.5454403159522507 0 0 0
38 3 24.940300015086862 8.999561825518605 1.5454403159524013 0 0 0
39 3 28.05783762043527 8.999561825518683 1.5454403159522367 0 0 0
40 3 31.175375225785483 8.999561825518317 1.545440315952262 0 0 0
41 3 1.5587679749620724 11.699430429535242 1.5454403159533487 0 0 0
42 3 4.676305580308838 11.699430429533885 1.5454403159512615 0 0 0
43 3 7.793843185663202 11.699430429533255 1.5454403159547965 0 0 0
44 3 10.911380791009673 11.699430429536017 1.5454403159531356 0 0 0
45 3 14.028918396363142 11.699430429534173 1.5454403159518886 0 0 0
46 3 17.146456001713176 11.699430429533535 1.5454403159515562 0 0 0
47 3 20.263993607061806 11.699430429536116 1.5454403159520467 0 0 0
48 3 23.381531212411677 11.69943042953369 1.5454403159519328 0 0 0
49 3 26.499068817761824 11.699430429534385 1.5454403159525893 0 0 0
50 3 29.616606423110795 11.699430429534226 1.5454403159520487 0 0 0
51 3 3.1175367776383727 14.39929903354996 1.545440315952561 0 0 0
52 3 6.23507438298551 14.39929903354913 1.545440315951431 0 0 0
53 3 9.352611988336434 14.399299033552193 1.5454403159529584 0 0 0
54 3 12.470149593687566 14.399299033552964 1.5454403159528642 0 0 0
55 3 15.587687199039543 14.399299033548957 1.545440315951583 0 0 0
56 3 18.705224804388052 14.399299033551296 1.5454403159518673 0 0 0
57 3 21.82276240973588 14.3992990335507 1.5454403159521508 0 0 0
58 3 24.94030001508633 14.399299033549623 1.5454403159520642 0 0 0
59 3 28.057837620436075 14.399299033550024 1.5454403159521723 0 0 0
60 3 31.175375225785558 14.399299033550312 1.5454403159522867 0 0 0
61 3 1.5587679749609535 17.099167637564616 1.5454403159518526 0 0 0
62 3 4.67630558031072 17.099167637563085 1.5454403159526446 0 0 0
63 3 7.793843185658439 17.09916763756485 1.5454403159514687 0 0 0
64 3 10.911380791009725 17.09916763757059 1.545440315951528 0 0 0
65 3 14.028918396362599 17.099167637568293 1.5454403159530552 0 0 0
66 3 17.146456001714387 17.09916763756585 1.5454403159515 0 0 0
67 3 20.263993607061398 17.09916763756615 1.5454403159519439 0 0 0
68 3 23.381531212409616 17.099167637565753 1.545440315952262 0 0 0
69 3 26.499068817761923 17.0991676375659 1.5454403159522756 0 0 0
70 3 29.61660642311153 17.099167637565618 1.5454403159521228 0 0 0
71 3 3.1175367776345637 19.799036241580474 1.5454403159559464 0 0 0
72 3 6.2350743829782225 19.799036241579703 1.5454403159547507 0 0 0
73 3 9.352611988333395 19.799036241582503 1.5454403159500927 0 0 0
74 3 12.470149593686118 19.799036241584076 1.5454403159522976 0 0 0
75 3 15.587687199037813 19.799036241583917 1.5454403159522614 0 0 0
76 3 18.705224804388244 19.799036241582332 1.5454403159515522 0 0 0
77 3 21.822762409736026 19.79903624158102 1.5454403159524854 0 0 0
78 3 24.940300015086216 19.79903624158191 1.545440315952254 0 0 0
79 3 28.057837620436228 19.79903624158159 1.5454403159517422 0 0 0
80 3 31.175375225785587 19.79903624158156 1.5454403159524874 0 0 0
81 3 1.5587679749654202 22.49890484559329 1.5454403159521344 0 0 0
82 3 4.676305580310289 22.498904845594684 1.5454403159542671 0 0 0
83 3 7.793843185659303 22.49890484559827 1.5454403159522838 0 0 0
84 3 10.911380791011597 22.49890484559802 1.5454403159524561 0 0 0
85 3 14.028918396363373 22.498904845598076 1.5454403159526118 0 0 0
86 3 17.146456001710174 22.49890484559896 1.5454403159505938 0 0 0
87 3 20.263993607059763 22.498904845597075 1.5454403159522754 0 0 0
88 3 23.381531212411076 22.498904845597014 1.545440315952856 0 0 0
89 3 26.499068817761856 22.49890484559792 1.5454403159519376 0 0 0
90 3 29.61660642311122 22.498904845597117 1.5454403159516799 0 0 0
91 3 3.117536777633702 25.198773449610687 1.5454403159505767 0 0 0
92 3 6.235074382981552 25.198773449613658 1.5454403159532961 0 0 0
93 3 9.352611988333898 25.198773449614386 1.5454403159522936 0 0 0
94 3 12.47014959368637 25.198773449614368 1.5454403159527743 0 0 0
95 3 15.587687199038264 25.198773449612656 1.545440315951112 0 0 0
96 3 18.705224804385733 25.198773449613196 1.5454403159514487 0 0 0
97 3 21.8227624097361 25.19877344961298 1.5454403159530248 0 0 0
98 3 24.940300015086628 25.198773449613206 1.545440315952152 0 0 0
99 3 28.057837620435457 25.19877344961311 1.5454403159517573 0 0 0
100 3 31.17537522578512 25.198773449613153 1.5454403159522774 0 0 0
101 3 1.5587679749584276 27.898642053627587 1.5454403159516568 0 0 0
102 3 4.676305580307812 27.898642053627515 1.545440315951393 0 0 0
103 3 7.793843185658053 27.898642053629224 1.5454403159545025 0 0 0
104 3 10.911380791009673 27.898642053629 1.5454403159523458 0 0 0
105 3 14.028918396362554 27.89864205362854 1.545440315951895 0 0 0
106 3 17.146456001712227 27.898642053628546 1.54544031595117 0 0 0
107 3 20.26399360705974 27.898642053628755 1.5454403159522676 0 0 0
108 3 23.381531212410973 27.898642053628436 1.5454403159525905 0 0 0
109 3 26.499068817761504 27.89864205362888 1.5454403159519448 0 0 0
110 3 29.61660642311068 27.898642053628702 1.5454403159517818 0 0 0
111 3 3.1175367776368104 30.598510657643107 1.5454403159509136 0 0 0
112 3 6.235074382986265 30.59851065764232 1.5454403159515402 0 0 0
113 3 9.352611988333084 30.598510657642727 1.5454403159527603 0 0 0
114 3 12.470149593686145 30.59851065764491 1.5454403159515748 0 0 0
115 3 15.587687199037347 30.59851065764442 1.5454403159515633 0 0 0
116 3 18.705224804385846 30.598510657644535 1.5454403159522179 0 0 0
117 3 21.822762409735986 30.598510657644002 1.5454403159527148 0 0 0
118 3 24.94030001508719 30.59851065764423 1.5454403159521326 0 0 0
119 3 28.057837620435627 30.598510657644045 1.5454403159519419 0 0 0
120 3 31.175375225785462 30.598510657644894 1.5454403159523447 0 0 0
121 3 1.5587679749593542 33.298379261662795 1.5454403159493837 0 0 0
122 3 4.676305580315882 33.29837926165562 1.5454403159503558 0 0 0
123 3 7.793843185662881 33.29837926165804 1.545440315952522 0 0 0
124 3 10.911380791011625 33.29837926166178 1.5454403159514767 0 0 0
125 3 14.028918396362746 33.29837926166028 1.5454403159522305 0 0 0
126 3 17.146456001711528 33.29837926165984 1.5454403159519243 0 0 0
127 3 20.263993607059486 33.29837926166041 1.5454403159521892 0 0 0
128 3 23.381531212410312 33.29837926166039 1.5454403159523644 0 0 0
129 3 26.499068817761504 33.29837926166032 1.545440315952003 0 0 0
130 3 29.616606423111076 33.29837926166009 1.5454403159518624 0 0 0
131 3 3.1175367776374507 35.99824786567868 1.5454403159531906 0 0 0
132 3 6.235074382987973 35.99824786567482 1.545440315951065 0 0 0
133 3 9.352611988337474 35.99824786567497 1.5454403159508179 0 0 0
134 3 12.470149593686335 35.99824786567698 1.5454403159527186 0 0 0
135 3 15.58768719903688 35.998247865674784 1.5454403159518473 0 0 0
136 3 18.705224804386734 35.99824786567646 1.5454403159518288 0 0 0
137 3 21.822762409735606 35.99824786567636 1.5454403159523518 0 0 0
138 3 24.940300015085935 35.99824786567615 1.5454403159520844 0 0 0
139 3 28.057837620436295 35.99824786567518 1.5454403159520784 0 0 0
140 3 31.175375225785917 35.99824786567623 1.5454403159522325 0 0 0
141 3 1.558767974959128 38.698116469694085 1.545440315954299 0 0 0
142 3 4.676305580307055 38.69811646969325 1.5454403159507346 0 0 0
143 3 7.793843185660512 38.698116469692756 1.545440315951312 0 0 0
144 3 10.911380791010025 38.69811646969173 1.5454403159538352 0 0 0
145 3 14.028918396361153 38.69811646969117 1.5454403159519592 0 0 0
146 3 17.146456001712814 38.698116469692025 1.5454403159513757 0 0 0
147 3 20.263993607060353 38.69811646969222 1.545440315952203 0 0 0
148 3 23.381531212409712 38.6981164696915 1.5454403159524295 0 0 0
149 3 26.49906881776114 38.69811646969196 1.5454403159523507 0 0 0
150 3 29.616606423111655 38.69811646969117 1.545440315951966 0 0 0
151 3 3.1175367776336183 41.39798507370686 1.5454403159532835 0 0 0
152 3 6.23507438298285 41.39798507370892 1.5454403159523606 0 0 0
153 3 9.352611988335068 41.397985073707446 1.545440315952582 0 0 0
154 3 12.470149593685031 41.39798507370739 1.5454403159524113 0 0 0
155 3 15.587687199038735 41.39798507370755 1.5454403159508985 0 0 0
156 3 18.705224804386823 41.39798507370865 1.5454403159523207 0 0 0
157 3 21.822762409735834 41.39798507370739 1.5454403159526078 0 0 0
158 3 24.940300015085644 41.397985073708085 1.5454403159518388 0 0 0
159 3 28.05783762043556 41.39798507370739 1.5454403159520567 0 0 0
160 3 31.175375225785693 41.39798507370737 1.545440315952184 0 0 0
161 2 1.558767974961842 0.8999560134728605 4.663253017380363 0 0 0
162 2 4.676305580309303 0.8999560134698938 4.6632530173791915 0 0 0
163 1 3.117536777635029 1.7999128611848256 3.10434666666672 0 0 0
164 2 7.793843185654726 0.8999560134748107 4.663253017381114 0 0 0
165 1 6.2350743829815345 1.7999128611867083 3.1043466666662285 0 0 0
166 1 9.352611988333674 1.799912861183575 3.104346666667219 0 0 0
167 2 10.91138079100891 0.8999560134697269 4.663253017382452 0 0 0
168 1 12.470149593686251 1.7999128611822666 3.104346666667192 0 0 0
169 2 14.028918396363805 0.8999560134704383 4.663253017381241 0 0 0
170 1 15.587687199038356 1.7999128611842719 3.1043466666664554 0 0 0
171 2 17.146456001712732 0.899956013470803 4.663253017381279 0 0 0
172 1 18.705224804387385 1.7999128611849198 3.104346666666881 0 0 0
173 2 20.26399360706201 0.8999560134708118 4.663253017381665 0 0 0
174 2 23.38153121241192 0.8999560134705997 4.663253017381663 0 0 0
175 1 21.822762409736693 1.7999128611844781 3.1043466666672552 0 0 0
176 2 26.499068817760826 0.899956013471714 4.663253017381382 0 0 0
177 1 24.940300015086617 1.7999128611846476 3.1043466666668222 0 0 0
178 2 29.61660642311085 0.8999560134708434 4.663253017381504 0 0 0
179 1 28.057837620435755 1.7999128611848154 3.1043466666668387 0 0 0
180 1 31.1753752257865 1.799912861184012 3.1043466666669675 0 0 0
181 1 1.5587679749579615 4.499781465199554 3.1043466666689548 0 0 0
182 1 4.676305580305687 4.499781465199397 3.1043466666685817 0 0 0
183 2 3.1175367776345007 3.5998246174838187 4.663253017381757 0 0 0
184 1 7.793843185660492 4.499781465200238 3.1043466666670425 0 0 0
185 2 6.2350743829824165 3.599824617488473 4.663253017380244 0 0 0
186 2 9.352611988336376 3.5998246174852477 4.663253017382017 0 0 0
187 1 10.91138079101168 4.499781465197165 3.1043466666663253 0 0 0
188 2 12.470149593687054 3.5998246174855564 4.66325301738159 0 0 0
189 1 14.028918396362897 4.499781465199426 3.104346666666927 0 0 0
190 2 15.587687199039092 3.599824617486269 4.663253017381412 0 0 0
191 1 17.14645600171386 4.499781465200678 3.1043466666666406 0 0 0
192 2 18.705224804388212 3.5998246174875943 4.66325301738156 0 0 0
193 1 20.26399360706269 4.4997814652011705 3.1043466666669923 0 0 0
194 1 23.381531212412185 4.49978146520028 3.1043466666672903 0 0 0
195 2 21.822762409736875 3.5998246174870014 4.663253017381836 0 0 0
196 1 26.499068817761657 4.499781465201018 3.1043466666667503 0 0 0
197 2 24.940300015087114 3.599824617486912 4.663253017381809 0 0 0
198 1 29.61660642311033 4.499781465200176 3.1043466666667663 0 0 0
199 2 28.05783762043566 3.5998246174871014 4.663253017381497 0 0 0
200 2 31.1753752257854 3.59982461748686 4.6632530173815665 0 0 0
201 2 1.558767974957723 6.299693221505645 4.663253017379549 0 0 0
202 2 4.676305580305424 6.299693221499779 4.663253017382296 0 0 0
203 1 3.117536777633583 7.199650069216139 3.104346666666656 0 0 0
204 2 7.793843185660184 6.299693221503294 4.663253017381683 0 0 0
205 1 6.2350743829824244 7.199650069214287 3.1043466666693087 0 0 0
206 1 9.352611988337403 7.199650069213887 3.104346666667008 0 0 0
207 2 10.911380791012464 6.299693221499382 4.663253017380982 0 0 0
208 1 12.470149593686843 7.199650069215663 3.104346666666192 0 0 0
209 2 14.028918396362624 6.299693221502993 4.6632530173809945 0 0 0
210 1 15.587687199038232 7.199650069215859 3.104346666666839 0 0 0
211 2 17.146456001713553 6.299693221502892 4.663253017381388 0 0 0
212 1 18.70522480438754 7.199650069217228 3.1043466666664443 0 0 0
213 2 20.263993607061515 6.29969322150381 4.663253017381558 0 0 0
214 2 23.381531212410813 6.299693221502846 4.663253017381998 0 0 0
215 1 21.82276240973641 7.199650069216548 3.1043466666669493 0 0 0
216 2 26.499068817761813 6.29969322150327 4.663253017381339 0 0 0
217 1 24.94030001508626 7.199650069216412 3.1043466666672557 0 0 0
218 2 29.61660642311093 6.299693221502436 4.663253017381738 0 0 0
219 1 28.05783762043634 7.199650069216522 3.1043466666667308 0 0 0
220 1 31.17537522578622 7.199650069215569 3.1043466666669994 0 0 0
221 1 1.5587679749688783 9.899518673236305 3.1043466666657604 0 0 0
222 1 4.676305580313103 9.899518673233102 3.1043466666668884 0 0 0
223 2 3.1175367776394496 8.999561825519336 4.663253017377793 0 0 0
224 1 7.793843185660914 9.899518673229354 3.104346666669561 0 0 0
225 2 6.235074382983302 8.999561825516718 4.663253017384035 0 0 0
226 2 9.352611988338817 8.999561825515386 4.663253017382687 0 0 0
227 1 10.911380791012384 9.89951867323239 3.104346666667477 0 0 0
228 2 12.470149593688623 8.999561825518818 4.663253017381467 0 0 0
229 1 14.028918396363673 9.899518673231416 3.1043466666663253 0 0 0
230 2 15.587687199038058 8.999561825517864 4.663253017381337 0 0 0
231 1 17.14645600171264 9.899518673231832 3.104346666666522 0 0 0
232 2 18.705224804387566 8.999561825519763 4.663253017381134 0 0 0
233 1 20.263993607062474 9.89951867323321 3.10434666666658 0 0 0
234 1 23.38153121241203 9.899518673231857 3.104346666666993 0 0 0
235 2 21.822762409737294 8.99956182551913 4.663253017381388 0 0 0
236 1 26.49906881776146 9.899518673232258 3.104346666667253 0 0 0
237 2 24.94030001508676 8.99956182551876 4.663253017382182 0 0 0
238 1 29.616606423110536 9.899518673231764 3.104346666666835 0 0 0
239 2 28.057837620435713 8.99956182551833 4.663253017381564 0 0 0
240 2 31.175375225785558 8.999561825518494 4.663253017381534 0 0 0
241 2 1.5587679749652121 11.699430429533162 4.663253017382982 0 0 0
242 2 4.676305580309696 11.699430429535008 4.663253017382174 0 0 0
243 1 3.1175367776359155 12.59938727724798 3.104346666666491 0 0 0
244 2 7.793843185662125 11.699430429535385 4.663253017381653 0 0 0
245 1 6.23507438298526 12.599387277247308 3.1043466666671176 0 0 0
246 1 9.352611988337 12.599387277250175 3.1043466666681376 0 0 0
247 2 10.911380791010558 11.699430429535841 4.663253017382507 0 0 0
248 1 12.470149593687106 12.599387277248827 3.104346666667074 0 0 0
249 2 14.028918396363647 11.69943042953391 4.663253017381081 0 0 0
250 1 15.587687199038472 12.599387277246517 3.1043466666662605 0 0 0
251 2 17.14645600171254 11.699430429533587 4.663253017381315 0 0 0
252 1 18.705224804386653 12.59938727724899 3.1043466666666286 0 0 0
253 2 20.26399360706149 11.699430429535836 4.663253017381106 0 0 0
254 2 23.3815312124113 11.699430429533988 4.663253017381706 0 0 0
255 1 21.822762409736534 12.599387277248436 3.1043466666666664 0 0 0
256 2 26.49906881776163 11.699430429534571 4.6632530173817885 0 0 0
257 1 24.94030001508626 12.599387277247189 3.1043466666669466 0 0 0
258 2 29.61660642311091 11.699430429534178 4.663253017381782 0 0 0
259 1 28.057837620436306 12.599387277247743 3.104346666667131 0 0 0
260 1 31.17537522578603 12.599387277247496 3.104346666666844 0 0 0
261 1 1.5587679749683312 15.299255881265633 3.104346666666912 0 0 0
262 1 4.676305580313152 15.299255881261677 3.1043466666671335 0 0 0
263 2 3.117536777639298 14.39929903354788 4.663253017380894 0 0 0
264 1 7.793843185659963 15.299255881262903 3.104346666666729 0 0 0
265 2 6.235074382986257 14.3992990335498 4.6632530173817575 0 0 0
266 2 9.352611988336808 14.39929903355324 4.663253017381443 0 0 0
267 1 10.911380791011684 15.29925588126807 3.1043466666667237 0 0 0
268 2 12.470149593687532 14.399299033553495 4.663253017381548 0 0 0
269 1 14.028918396364706 15.299255881264408 3.1043466666670936 0 0 0
270 2 15.58768719904014 14.399299033548383 4.6632530173815185 0 0 0
271 1 17.146456001713677 15.299255881263624 3.1043466666664017 0 0 0
272 2 18.70522480438751 14.399299033551308 4.6632530173815185 0 0 0
273 1 20.263993607061913 15.299255881264811 3.1043466666669817 0 0 0
274 1 23.381531212411353 15.299255881263123 3.1043466666668182 0 0 0
275 2 21.822762409736146 14.399299033550422 4.663253017381549 0 0 0
276 1 26.499068817761305 15.299255881263303 3.104346666666844 0 0 0
277 2 24.94030001508609 14.39929903354987 4.663253017381605 0 0 0
278 1 29.616606423110806 15.299255881263527 3.1043466666670296 0 0 0
279 2 28.057837620435752 14.399299033550108 4.663253017381909 0 0 0
280 2 31.17537522578566 14.399299033550216 4.663253017381589 0 0 0
281 2 1.5587679749597938 17.099167637565266 4.663253017382694 0 0 0
282 2 4.6763055803113245 17.09916763756154 4.663253017384345 0 0 0
283 1 3.1175367776361744 17.9991244852775 3.1043466666697395 0 0 0
284 2 7.793843185661366 17.099167637565067 4.663253017380337 0 0 0
285 1 6.23507438298379 17.99912448527673 3.1043466666676047 0 0 0
286 1 9.352611988332841 17.99912448528058 3.104346666664829 0 0 0
287 2 10.911380791006923 17.09916763757164 4.663253017380522 0 0 0
288 1 12.470149593685973 17.99912448528232 3.104346666667093 0 0 0
289 2 14.028918396363235 17.09916763756832 4.663253017381296 0 0 0
290 1 15.587687199039495 17.999124485280905 3.1043466666667525 0 0 0
291 2 17.14645600171433 17.099167637565753 4.6632530173811775 0 0 0
292 1 18.70522480438765 17.9991244852803 3.104346666666439 0 0 0
293 2 20.26399360706081 17.099167637566456 4.6632530173819955 0 0 0
294 2 23.381531212410177 17.099167637565476 4.66325301738157 0 0 0
295 1 21.82276240973523 17.99912448527921 3.104346666667233 0 0 0
296 2 26.499068817761955 17.099167637565888 4.663253017381117 0 0 0
297 1 24.940300015085686 17.99912448527855 3.104346666666724 0 0 0
298 2 29.61660642311132 17.099167637565753 4.663253017381875 0 0 0
299 1 28.057837620436803 17.999124485279722 3.1043466666667774 0 0 0
300 1 31.175375225786198 17.99912448527881 3.104346666667105 0 0 0
301 1 1.5587679749628336 20.698993089294863 3.1043466666700295 0 0 0
302 1 4.676305580307394 20.69899308929417 3.104346666670985 0 0 0
303 2 3.1175367776357605 19.79903624157836 4.663253017386746 0 0 0
304 1 7.793843185657318 20.698993089293996 3.104346666665761 0 0 0
305 2 6.235074382984434 19.79903624157935 4.663253017382219 0 0 0
306 2 9.35261198833311 19.799036241581163 4.66325301737986 0 0 0
307 1 10.911380791009336 20.698993089295158 3.1043466666664927 0 0 0
308 2 12.470149593685553 19.79903624158436 4.663253017382521 0 0 0
309 1 14.028918396362332 20.69899308929615 3.104346666667455 0 0 0
310 2 15.587687199039461 19.799036241583668 4.663253017381081 0 0 0
311 1 17.146456001713954 20.698993089296998 3.1043466666659087 0 0 0
312 2 18.705224804387147 19.7990362415823 4.663253017381047 0 0 0
313 1 20.263993607061472 20.698993089294905 3.104346666666948 0 0 0
314 1 23.38153121241121 20.698993089294316 3.104346666667361 0 0 0
315 2 21.82276240973573 19.799036241581025 4.663253017382117 0 0 0
316 1 26.499068817761607 20.698993089295445 3.1043466666665727 0 0 0
317 2 24.94030001508694 19.799036241581533 4.663253017381489 0 0 0
318 1 29.61660642311085 20.698993089295104 3.104346666666833 0 0 0
319 2 28.057837620436064 19.79903624158182 4.663253017381606 0 0 0
320 2 31.175375225785224 19.79903624158164 4.663253017381679 0 0 0
321 2 1.5587679749613588 22.498904845598382 4.663253017381569 0 0 0
322 2 4.676305580311732 22.498904845596737 4.663253017384091 0 0 0
323 1 3.1175367776374068 23.398861693310185 3.10434666666882 0 0 0
324 2 7.793843185659089 22.49890484559754 4.663253017379977 0 0 0
325 1 6.235074382983686 23.39886169331016 3.1043466666666224 0 0 0
326 1 9.352611988335617 23.398861693311694 3.104346666666962 0 0 0
327 2 10.911380791010624 22.498904845597362 4.66325301738143 0 0 0
328 1 12.4701495936874 23.398861693311055 3.1043466666672463 0 0 0
329 2 14.028918396364165 22.49890484559899 4.663253017381746 0 0 0
330 1 15.587687199037369 23.39886169331161 3.1043466666663035 0 0 0
331 2 17.14645600171052 22.498904845598485 4.66325301738104 0 0 0
332 1 18.705224804384375 23.398861693311222 3.10434666666601 0 0 0
333 2 20.26399360705846 22.498904845597348 4.663253017381413 0 0 0
334 2 23.38153121241146 22.498904845597224 4.663253017381985 0 0 0
335 1 21.822762409734995 23.39886169331011 3.104346666667487 0 0 0
336 2 26.499068817762062 22.498904845597703 4.6632530173813045 0 0 0
337 1 24.940300015086564 23.39886169331064 3.104346666666974 0 0 0
338 2 29.61660642311061 22.498904845597295 4.663253017381815 0 0 0
339 1 28.05783762043619 23.398861693310963 3.104346666666519 0 0 0
340 1 31.175375225786468 23.39886169331042 3.1043466666669803 0 0 0
341 1 1.5587679749627517 26.098730297326277 3.1043466666660753 0 0 0
342 1 4.676305580306986 26.09873029732629 3.1043466666655477 0 0 0
343 2 3.117536777637884 25.198773449614272 4.663253017381627 0 0 0
344 1 7.793843185658232 26.0987302973262 3.1043466666682566 0 0 0
345 2 6.235074382980572 25.198773449612997 4.663253017380454 0 0 0
346 2 9.352611988335546 25.1987734496133 4.663253017383379 0 0 0
347 1 10.911380791010425 26.098730297326636 3.1043466666677624 0 0 0
348 2 12.470149593687589 25.19877344961439 4.663253017381485 0 0 0
349 1 14.028918396363597 26.098730297325883 3.1043466666664483 0 0 0
350 2 15.587687199038813 25.198773449612812 4.663253017381255 0 0 0
351 1 17.146456001712036 26.098730297326693 3.104346666665939 0 0 0
352 2 18.705224804384844 25.198773449612673 4.66325301738098 0 0 0
353 1 20.263993607059962 26.09873029732606 3.1043466666670074 0 0 0
354 1 23.38153121241164 26.098730297326323 3.1043466666673853 0 0 0
355 2 21.822762409735855 25.19877344961324 4.663253017381934 0 0 0
356 1 26.499068817761575 26.098730297326554 3.104346666666651 0 0 0
357 2 24.940300015087313 25.198773449613192 4.663253017381881 0 0 0
358 1 29.616606423110017 26.098730297326206 3.104346666666776 0 0 0
359 2 28.05783762043527 25.19877344961296 4.663253017381393 0 0 0
360 2 31.17537522578503 25.198773449613196 4.66325301738137 0 0 0
361 2 1.558767974959399 27.898642053630375 4.6632530173794375 0 0 0
362 2 4.676305580305613 27.898642053628933 4.663253017379306 0 0 0
363 1 3.117536777633487 28.7985989013428 3.104346666664561 0 0 0
364 2 7.793843185656704 27.898642053630194 4.663253017381869 0 0 0
365 1 6.235074382982313 28.79859890134173 3.1043466666665402 0 0 0
366 1 9.352611988334736 28.79859890134122 3.1043466666681963 0 0 0
367 2 10.911380791011018 27.898642053629505 4.663253017382533 0 0 0
368 1 12.470149593685948 28.798598901342082 3.104346666666433 0 0 0
369 2 14.028918396362721 27.89864205362919 4.663253017380491 0 0 0
370 1 15.58768719903784 28.798598901341883 3.1043466666658737 0 0 0
371 2 17.146456001711268 27.898642053628414 4.663253017381213 0 0 0
372 1 18.70522480438579 28.798598901342594 3.1043466666668333 0 0 0
373 2 20.26399360705934 27.898642053628535 4.663253017381776 0 0 0
374 2 23.381531212411087 27.89864205362874 4.663253017381877 0 0 0
375 1 21.822762409735013 28.798598901341382 3.104346666667285 0 0 0
376 2 26.499068817761586 27.898642053628688 4.663253017381614 0 0 0
377 1 24.94030001508633 28.798598901341855 3.104346666666963 0 0 0
378 2 29.616606423110383 27.898642053628574 4.663253017381856 0 0 0
379 1 28.05783762043581 28.798598901342288 3.104346666666748 0 0 0
380 1 31.175375225786063 28.79859890134214 3.104346666666859 0 0 0
381 1 1.5587679749644285 31.49846750536221 3.104346666668968 0 0 0
382 1 4.6763055803120634 31.49846750535488 3.104346666665635 0 0 0
383 2 3.1175367776362557 30.598510657643153 4.663253017379767 0 0 0
384 1 7.793843185659573 31.498467505355944 3.104346666666729 0 0 0
385 2 6.235074382984587 30.598510657642862 4.663253017381803 0 0 0
386 2 9.352611988334607 30.59851065764389 4.663253017381477 0 0 0
387 1 10.911380791009915 31.498467505358175 3.104346666666312 0 0 0
388 2 12.470149593686235 30.598510657644933 4.663253017380518 0 0 0
389 1 14.028918396362094 31.49846750535747 3.104346666666208 0 0 0
390 2 15.587687199036774 30.59851065764392 4.6632530173812965 0 0 0
391 1 17.146456001711265 31.498467505357922 3.104346666666833 0 0 0
392 2 18.705224804385843 30.59851065764429 4.6632530173817575 0 0 0
393 1 20.263993607060403 31.498467505358082 3.10434666666715 0 0 0
394 1 23.38153121241147 31.498467505357603 3.1043466666669217 0 0 0
395 2 21.822762409735905 30.59851065764423 4.663253017381584 0 0 0
396 1 26.499068817761803 31.49846750535808 3.1043466666668107 0 0 0
397 2 24.940300015087352 30.598510657644287 4.663253017381647 0 0 0
398 1 29.616606423110056 31.49846750535787 3.10434666666674 0 0 0
399 2 28.057837620435674 30.598510657644084 4.663253017381599 0 0 0
400 2 31.175375225785356 30.598510657644926 4.663253017381334 0 0 0
401 2 1.558767974960354 33.298379261661616 4.663253017384678 0 0 0
402 2 4.676305580312719 33.298379261655235 4.6632530173818 0 0 0
403 1 3.1175367776379934 34.19833610937046 3.1043466666655566 0 0 0
404 2 7.793843185664199 33.29837926165848 4.66325301738075 0 0 0
405 1 6.235074382987924 34.198336109371894 3.1043466666667365 0 0 0
406 1 9.352611988336813 34.19833610937327 3.1043466666656827 0 0 0
407 2 10.911380791010851 33.29837926166204 4.663253017380266 0 0 0
408 1 12.470149593687175 34.1983361093742 3.1043466666665998 0 0 0
409 2 14.02891839636208 33.298379261659434 4.663253017381152 0 0 0
410 1 15.587687199037658 34.198336109372576 3.104346666667004 0 0 0
411 2 17.146456001711762 33.298379261659655 4.663253017381963 0 0 0
412 1 18.7052248043854 34.19833610937421 3.1043466666666744 0 0 0
413 2 20.263993607059373 33.298379261660706 4.663253017381549 0 0 0
414 2 23.38153121241057 33.29837926166046 4.663253017381492 0 0 0
415 1 21.822762409734697 34.198336109373855 3.1043466666669426 0 0 0
416 2 26.49906881776178 33.29837926166013 4.663253017381656 0 0 0
417 1 24.940300015086386 34.1983361093732 3.1043466666669106 0 0 0
418 2 29.61660642311103 33.29837926166006 4.663253017381718 0 0 0
419 1 28.057837620436487 34.198336109373535 3.1043466666668245 0 0 0
420 1 31.175375225786148 34.19833610937402 3.1043466666668995 0 0 0
421 1 1.5587679749648446 36.89820471339139 3.1043466666665527 0 0 0
422 1 4.676305580312703 36.89820471339124 3.1043466666667525 0 0 0
423 2 3.1175367776368996 35.998247865675935 4.663253017378608 0 0 0
424 1 7.793843185662408 36.89820471338923 3.1043466666650454 0 0 0
425 2 6.235074382988788 35.99824786567626 4.6632530173805895 0 0 0
426 2 9.352611988335653 35.99824786567438 4.663253017380818 0 0 0
427 1 10.911380791010778 36.89820471338869 3.104346666667431 0 0 0
428 2 12.470149593686553 35.99824786567614 4.663253017381799 0 0 0
429 1 14.028918396362396 36.89820471338916 3.104346666667052 0 0 0
430 2 15.587687199037482 35.99824786567505 4.6632530173816935 0 0 0
431 1 17.146456001711677 36.89820471338991 3.1043466666663018 0 0 0
432 2 18.70522480438621 35.9982478656768 4.663253017381129 0 0 0
433 1 20.263993607060556 36.898204713390335 3.1043466666668107 0 0 0
434 1 23.381531212410135 36.89820471338959 3.104346666667077 0 0 0
435 2 21.822762409735187 35.99824786567617 4.663253017381469 0 0 0
436 1 26.49906881776171 36.89820471338935 3.1043466666668076 0 0 0
437 2 24.940300015085832 35.998247865675964 4.663253017381817 0 0 0
438 1 29.616606423110984 36.89820471338931 3.104346666666836 0 0 0
439 2 28.057837620436068 35.99824786567532 4.663253017381664 0 0 0
440 2 31.175375225785814 35.99824786567634 4.6632530173814715 0 0 0
441 2 1.5587679749598378 38.69811646969139 4.6632530173802955 0 0 0
442 2 4.676305580309473 38.69811646969301 4.663253017382211 0 0 0