LAMMPS data file via write_data, version 21 Nov 2023, timestep = 58, units = metal

48000 atoms
3 atom types

0 1558.7712992547133 xlo xhi
0 86.39587480608192 ylo yhi
0 50 zlo zhi
0 0 0 xy xz yz

Masses

1 95.94
2 32.065
3 32.065

Atoms # atomic

5 3 1.5587704715319202 0.8999570568207864 1.5454401246171048 0 0 0
11 3 4.676313070041282 0.8999570568208067 1.5454401246171128 0 0 0
17 3 7.793855668550701 0.8999570568208101 1.5454401246171152 0 0 0
23 3 10.911398267060136 0.8999570568208085 1.5454401246171154 0 0 0
29 3 14.028940865569568 0.8999570568208093 1.5454401246171146 0 0 0
35 3 17.146483464079 0.8999570568208097 1.5454401246171148 0 0 0
41 3 20.264026062588442 0.8999570568208081 1.5454401246171154 0 0 0
47 3 23.381568661097855 0.8999570568208075 1.5454401246171126 0 0 0
53 3 26.49911125960728 0.89995705682081 1.5454401246171163 0 0 0
59 3 29.616653858116702 0.899957056820808 1.545440124617116 0 0 0
12 3 3.117541770786633 3.599828144510837 1.5454401246171139 0 0 0
18 3 6.235084369296014 3.5998281445108424 1.545440124617119 0 0 0
24 3 9.35262696780544 3.5998281445108424 1.5454401246171223 0 0 0
30 3 12.470169566314866 3.5998281445108424 1.5454401246171223 0 0 0
36 3 15.587712164824305 3.599828144510845 1.5454401246171223 0 0 0
42 3 18.70525476333374 3.5998281445108424 1.5454401246171212 0 0 0
48 3 21.822797361843154 3.5998281445108424 1.54544012461712 0 0 0
54 3 24.94033996035258 3.5998281445108424 1.545440124617121 0 0 0
60 3 28.05788255886201 3.5998281445108424 1.545440124617121 0 0 0
66 3 31.17542515737144 3.5998281445108424 1.545440124617121 0 0 0
3005 3 1.5587704715319228 6.29969923220088 1.5454401246171119 0 0 0
3011 3 4.676313070041282 6.2996992322009 1.5454401246171194 0 0 0
3017 3 7.793855668550701 6.299699232200901 1.5454401246171232 0 0 0
3023 3 10.911398267060136 6.299699232200901 1.5454401246171223 0 0 0
3029 3 14.028940865569568 6.299699232200901 1.545440124617123 0 0 0
3035 3 17.146483464079 6.299699232200897 1.5454401246171199 0 0 0
3041 3 20.26402606258843 6.299699232200901 1.5454401246171214 0 0 0
3047 3 23.381568661097845 6.299699232200903 1.545440124617123 0 0 0
3053 3 26.49911125960728 6.299699232200903 1.5454401246171234 0 0 0
3059 3 29.616653858116702 6.299699232200901 1.5454401246171223 0 0 0
3012 3 3.117541770786633 8.999570319890955 1.5454401246171148 0 0 0
3018 3 6.235084369296014 8.999570319890966 1.545440124617119 0 0 0
3024 3 9.35262696780544 8.999570319890966 1.5454401246171223 0 0 0
3030 3 12.470169566314873 8.999570319890964 1.5454401246171232 0 0 0
3036 3 15.587712164824305 8.999570319890966 1.5454401246171212 0 0 0
3042 3 18.70525476333374 8.999570319890966 1.54544012461712 0 0 0
3048 3 21.822797361843154 8.99957031989096 1.5454401246171208 0 0 0
3054 3 24.94033996035258 8.999570319890964 1.5454401246171214 0 0 0
3060 3 28.05788255886201 8.999570319890966 1.5454401246171199 0 0 0
3066 3 31.17542515737144 8.99957031989096 1.5454401246171212 0 0 0
6005 3 1.5587704715319233 11.699441407581016 1.5454401246171119 0 0 0
6011 3 4.676313070041282 11.699441407581029 1.5454401246171199 0 0 0
6017 3 7.793855668550701 11.699441407581023 1.5454401246171237 0 0 0
6023 3 10.911398267060136 11.699441407581023 1.5454401246171217 0 0 0
6029 3 14.028940865569574 11.699441407581023 1.5454401246171234 0 0 0
6035 3 17.146483464079008 11.699441407581023 1.5454401246171223 0 0 0
6041 3 20.264026062588442 11.699441407581023 1.5454401246171223 0 0 0
6047 3 23.381568661097855 11.699441407581022 1.5454401246171208 0 0 0
6053 3 26.49911125960728 11.699441407581023 1.5454401246171248 0 0 0
6059 3 29.616653858116702 11.699441407581023 1.545440124617124 0 0 0
6012 3 3.117541770786633 14.399312495271088 1.5454401246171157 0 0 0
6018 3 6.235084369296014 14.39931249527109 1.5454401246171194 0 0 0
6024 3 9.35262696780544 14.39931249527109 1.5454401246171225 0 0 0
6030 3 12.470169566314873 14.399312495271094 1.545440124617123 0 0 0
6036 3 15.587712164824309 14.399312495271094 1.5454401246171214 0 0 0
6042 3 18.70525476333374 14.399312495271088 1.5454401246171223 0 0 0
6048 3 21.822797361843165 14.39931249527109 1.5454401246171199 0 0 0
6054 3 24.94033996035258 14.39931249527109 1.5454401246171208 0 0 0
6060 3 28.05788255886201 14.399312495271094 1.5454401246171208 0 0 0
6066 3 31.17542515737143 14.399312495271088 1.545440124617123 0 0 0
9005 3 1.5587704715319213 17.09918358296113 1.545440124617112 0 0 0
9011 3 4.676313070041282 17.099183582961135 1.5454401246171183 0 0 0
9017 3 7.793855668550703 17.099183582961146 1.5454401246171219 0 0 0
9023 3 10.911398267060136 17.099183582961146 1.5454401246171212 0 0 0
9029 3 14.028940865569568 17.099183582961153 1.5454401246171225 0 0 0
9035 3 17.146483464079008 17.099183582961146 1.545440124617121 0 0 0
9041 3 20.264026062588442 17.099183582961146 1.5454401246171214 0 0 0
9047 3 23.381568661097855 17.099183582961146 1.54544012461712 0 0 0
9053 3 26.49911125960728 17.099183582961146 1.5454401246171219 0 0 0
9059 3 29.616653858116685 17.099183582961146 1.545440124617119 0 0 0
9012 3 3.117541770786633 19.799054670651184 1.5454401246171154 0 0 0
9018 3 6.235084369296014 19.79905467065121 1.545440124617119 0 0 0
9024 3 9.35262696780544 19.79905467065121 1.5454401246171212 0 0 0
9030 3 12.470169566314873 19.79905467065121 1.5454401246171214 0 0 0
9036 3 15.587712164824309 19.79905467065121 1.5454401246171223 0 0 0
9042 3 18.70525476333374 19.79905467065121 1.545440124617121 0 0 0
9048 3 21.822797361843165 19.79905467065121 1.5454401246171199 0 0 0
9054 3 24.94033996035258 19.79905467065121 1.5454401246171208 0 0 0
9060 3 28.05788255886201 19.79905467065121 1.5454401246171192 0 0 0
9066 3 31.17542515737143 19.79905467065121 1.54544012461712 0 0 0
12005 3 1.5587704715319213 22.498925758341244 1.54544012461711 0 0 0
12011 3 4.676313070041282 22.498925758341247 1.545440124617116 0 0 0
12017 3 7.793855668550701 22.498925758341247 1.5454401246171212 0 0 0
12023 3 10.911398267060141 22.498925758341247 1.545440124617121 0 0 0
12029 3 14.028940865569574 22.498925758341247 1.5454401246171223 0 0 0
12035 3 17.146483464079 22.498925758341258 1.5454401246171223 0 0 0
12041 3 20.264026062588435 22.49892575834126 1.5454401246171225 0 0 0
12047 3 23.381568661097855 22.498925758341247 1.5454401246171199 0 0 0
12053 3 26.49911125960728 22.498925758341258 1.5454401246171223 0 0 0
12059 3 29.616653858116685 22.498925758341247 1.5454401246171168 0 0 0
12012 3 3.1175417707866315 25.1987968460313 1.5454401246171137 0 0 0
12018 3 6.235084369296014 25.198796846031314 1.5454401246171168 0 0 0
12024 3 9.35262696780544 25.198796846031314 1.545440124617121 0 0 0
12030 3 12.470169566314866 25.198796846031318 1.5454401246171194 0 0 0
12036 3 15.587712164824294 25.198796846031318 1.5454401246171174 0 0 0
12042 3 18.705254763333727 25.198796846031318 1.5454401246171199 0 0 0
12048 3 21.822797361843154 25.198796846031318 1.5454401246171183 0 0 0
12054 3 24.94033996035258 25.198796846031318 1.5454401246171199 0 0 0
12060 3 28.05788255886201 25.198796846031325 1.5454401246171194 0 0 0
12066 3 31.17542515737143 25.198796846031318 1.5454401246171199 0 0 0
15005 3 1.5587704715319233 27.89866793372137 1.545440124617108 0 0 0
15011 3 4.676313070041279 27.898667933721377 1.5454401246171154 0 0 0
15017 3 7.793855668550703 27.898667933721377 1.54544012461712 0 0 0
15023 3 10.911398267060136 27.898667933721377 1.5454401246171203 0 0 0
15029 3 14.028940865569574 27.898667933721377 1.5454401246171208 0 0 0
15035 3 17.146483464079 27.898667933721377 1.5454401246171208 0 0 0
15041 3 20.264026062588442 27.898667933721374 1.5454401246171217 0 0 0
15047 3 23.381568661097855 27.898667933721377 1.54544012461712 0 0 0
15053 3 26.49911125960728 27.898667933721377 1.5454401246171219 0 0 0
15059 3 29.616653858116702 27.898667933721377 1.5454401246171185 0 0 0
15012 3 3.117541770786625 30.59853902141144 1.5454401246171097 0 0 0
15018 3 6.235084369296014 30.598539021411433 1.5454401246171148 0 0 0
15024 3 9.35262696780544 30.59853902141144 1.5454401246171194 0 0 0
15030 3 12.470169566314876 30.598539021411433 1.545440124617123 0 0 0
15036 3 15.587712164824305 30.598539021411433 1.5454401246171237 0 0 0
15042 3 18.70525476333374 30.598539021411423 1.5454401246171232 0 0 0
15048 3 21.82279736184316 30.598539021411433 1.5454401246171223 0 0 0
15054 3 24.94033996035258 30.598539021411433 1.5454401246171212 0 0 0
15060 3 28.05788255886201 30.598539021411433 1.545440124617119 0 0 0
15066 3 31.17542515737144 30.598539021411433 1.5454401246171214 0 0 0
18005 3 1.5587704715319188 33.2984101091015 1.545440124617109 0 0 0
18011 3 4.676313070041279 33.29841010910152 1.5454401246171163 0 0 0
18017 3 7.793855668550701 33.29841010910152 1.5454401246171219 0 0 0
18023 3 10.911398267060141 33.29841010910152 1.5454401246171225 0 0 0
18029 3 14.028940865569574 33.29841010910152 1.5454401246171232 0 0 0
18035 3 17.146483464079008 33.2984101091015 1.5454401246171248 0 0 0
18041 3 20.264026062588442 33.2984101091015 1.5454401246171254 0 0 0
18047 3 23.381568661097855 33.29841010910152 1.5454401246171208 0 0 0
18053 3 26.49911125960728 33.29841010910152 1.5454401246171248 0 0 0
18059 3 29.616653858116702 33.2984101091015 1.5454401246171248 0 0 0
18012 3 3.1175417707866266 35.99828119679157 1.5454401246171183 0 0 0
18018 3 6.23508436929601 35.99828119679158 1.5454401246171179 0 0 0
18024 3 9.35262696780544 35.99828119679157 1.5454401246171223 0 0 0
18030 3 12.470169566314866 35.99828119679157 1.5454401246171208 0 0 0
18036 3 15.587712164824305 35.99828119679157 1.5454401246171223 0 0 0
18042 3 18.70525476333374 35.99828119679157 1.5454401246171214 0 0 0
18048 3 21.822797361843165 35.99828119679157 1.5454401246171208 0 0 0
18054 3 24.94033996035258 35.99828119679157 1.5454401246171237 0 0 0
18060 3 28.05788255886201 35.99828119679157 1.5454401246171223 0 0 0
18066 3 31.17542515737143 35.99828119679157 1.5454401246171212 0 0 0
21005 3 1.5587704715319177 38.69815228448163 1.5454401246171108 0 0 0
21011 3 4.676313070041276 38.698152284481644 1.5454401246171128 0 0 0
21017 3 7.793855668550698 38.69815228448163 1.5454401246171192 0 0 0
21023 3 10.911398267060141 38.69815228448163 1.5454401246171208 0 0 0
21029 3 14.028940865569568 38.69815228448163 1.5454401246171194 0 0 0
21035 3 17.146483464079008 38.69815228448163 1.5454401246171194 0 0 0
21041 3 20.264026062588435 38.69815228448163 1.5454401246171203 0 0 0
21047 3 23.381568661097855 38.69815228448163 1.5454401246171185 0 0 0
21053 3 26.49911125960728 38.698152284481644 1.5454401246171203 0 0 0
21059 3 29.616653858116685 38.69815228448163 1.5454401246171183 0 0 0
21012 3 3.1175417707866226 41.39802337217169 1.5454401246171139 0 0 0
21018 3 6.235084369296013 41.39802337217169 1.5454401246171152 0 0 0
21024 3 9.35262696780544 41.39802337217169 1.5454401246171208 0 0 0
21030 3 12.470169566314866 41.39802337217169 1.5454401246171217 0 0 0
21036 3 15.587712164824305 41.39802337217169 1.5454401246171212 0 0 0
21042 3 18.70525476333374 41.39802337217169 1.5454401246171208 0 0 0
21048 3 21.822797361843165 41.39802337217169 1.5454401246171199 0 0 0
21054 3 24.94033996035258 41.39802337217169 1.545440124617121 0 0 0
21060 3 28.05788255886201 41.39802337217169 1.5454401246171192 0 0 0
21066 3 31.17542515737143 41.39802337217169 1.5454401246171208 0 0 0
3 2 1.5587704715319188 0.8999570568207864 4.663253208716274 0 0 0
9 2 4.676313070041279 0.8999570568208066 4.663253208716272 0 0 0
8 1 3.117541770786593 1.799914086050818 3.1043466666666077 0 0 0
15 2 7.793855668550701 0.8999570568208092 4.663253208716275 0 0 0
14 1 6.235084369295989 1.7999140860508192 3.104346666666611 0 0 0
20 1 9.352626967805417 1.799914086050818 3.1043466666666095 0 0 0
21 2 10.911398267060136 0.8999570568208078 4.6632532087162755 0 0 0
26 1 12.47016956631485 1.7999140860508172 3.1043466666666095 0 0 0
27 2 14.028940865569568 0.8999570568208085 4.663253208716276 0 0 0
32 1 15.587712164824284 1.799914086050818 3.104346666666611 0 0 0
33 2 17.146483464079008 0.8999570568208092 4.6632532087162755 0 0 0
38 1 18.70525476333372 1.7999140860508172 3.1043466666666095 0 0 0
39 2 20.264026062588442 0.8999570568208076 4.663253208716275 0 0 0
45 2 23.381568661097855 0.8999570568208066 4.663253208716278 0 0 0
44 1 21.822797361843154 1.7999140860508196 3.104346666666611 0 0 0
51 2 26.49911125960728 0.8999570568208096 4.663253208716275 0 0 0
50 1 24.94033996035257 1.7999140860508192 3.1043466666666095 0 0 0
57 2 29.616653858116702 0.8999570568208076 4.663253208716275 0 0 0
56 1 28.057882558861987 1.7999140860508196 3.1043466666666113 0 0 0
62 1 31.175425157371418 1.7999140860508172 3.104346666666609 0 0 0
1 1 1.5587704715319446 4.499785173740852 3.1043466666666086 0 0 0
7 1 4.676313070041314 4.499785173740872 3.104346666666611 0 0 0
10 2 3.1175417707866275 3.599828144510835 4.663253208716267 0 0 0
13 1 7.793855668550724 4.499785173740866 3.104346666666611 0 0 0
16 2 6.235084369296014 3.5998281445108424 4.663253208716271 0 0 0
22 2 9.35262696780544 3.5998281445108424 4.663253208716271 0 0 0
19 1 10.911398267060154 4.499785173740868 3.1043466666666095 0 0 0
28 2 12.470169566314866 3.5998281445108424 4.66325320871627 0 0 0
25 1 14.028940865569584 4.499785173740868 3.104346666666609 0 0 0
34 2 15.587712164824305 3.599828144510845 4.663253208716269 0 0 0
31 1 17.146483464079022 4.499785173740866 3.104346666666611 0 0 0
40 2 18.70525476333374 3.5998281445108424 4.663253208716269 0 0 0
37 1 20.264026062588442 4.49978517374087 3.104346666666611 0 0 0
43 1 23.381568661097866 4.499785173740868 3.104346666666611 0 0 0
46 2 21.822797361843154 3.5998281445108424 4.663253208716271 0 0 0
49 1 26.4991112596073 4.499785173740866 3.1043466666666095 0 0 0
52 2 24.94033996035258 3.5998281445108424 4.663253208716271 0 0 0
55 1 29.61665385811672 4.499785173740868 3.104346666666611 0 0 0
58 2 28.05788255886201 3.5998281445108424 4.663253208716271 0 0 0
64 2 31.17542515737144 3.5998281445108424 4.6632532087162675 0 0 0
3003 2 1.5587704715319208 6.29969923220088 4.663253208716266 0 0 0
3009 2 4.676313070041279 6.2996992322009 4.6632532087162675 0 0 0
3008 1 3.1175417707865942 7.199656261430929 3.1043466666666086 0 0 0
3015 2 7.793855668550701 6.299699232200901 4.663253208716269 0 0 0
3014 1 6.235084369295989 7.199656261430929 3.104346666666612 0 0 0
3020 1 9.352626967805422 7.1996562614309285 3.104346666666611 0 0 0
3021 2 10.911398267060136 6.299699232200901 4.663253208716274 0 0 0
3026 1 12.470169566314855 7.199656261430926 3.104346666666609 0 0 0
3027 2 14.028940865569568 6.299699232200901 4.66325320871627 0 0 0
3032 1 15.58771216482429 7.199656261430926 3.1043466666666086 0 0 0
3033 2 17.146483464079 6.299699232200901 4.663253208716269 0 0 0
3038 1 18.705254763333716 7.1996562614309285 3.104346666666611 0 0 0
3039 2 20.26402606258842 6.299699232200901 4.66325320871627 0 0 0
3045 2 23.381568661097845 6.299699232200901 4.663253208716275 0 0 0
3044 1 21.822797361843143 7.1996562614309285 3.1043466666666117 0 0 0
3051 2 26.49911125960728 6.299699232200901 4.663253208716269 0 0 0
3050 1 24.94033996035257 7.1996562614309285 3.1043466666666095 0 0 0
3057 2 29.616653858116702 6.299699232200901 4.663253208716268 0 0 0
3056 1 28.057882558861987 7.1996562614309285 3.1043466666666117 0 0 0
3062 1 31.175425157371418 7.1996562614309285 3.104346666666611 0 0 0
3001 1 1.5587704715319455 9.899527349120977 3.104346666666608 0 0 0
3007 1 4.676313070041314 9.899527349121 3.104346666666611 0 0 0
3010 2 3.117541770786629 8.999570319890955 4.663253208716268 0 0 0
3013 1 7.793855668550724 9.899527349120989 3.104346666666611 0 0 0
3016 2 6.235084369296013 8.999570319890966 4.663253208716271 0 0 0
3022 2 9.35262696780544 8.999570319890966 4.663253208716272 0 0 0
3019 1 10.911398267060159 9.899527349120989 3.1043466666666086 0 0 0
3028 2 12.470169566314873 8.999570319890964 4.663253208716275 0 0 0
3025 1 14.02894086556959 9.899527349120989 3.1043466666666086 0 0 0
3034 2 15.587712164824309 8.999570319890966 4.663253208716271 0 0 0
3031 1 17.146483464079022 9.899527349120989 3.104346666666611 0 0 0
3040 2 18.70525476333374 8.999570319890964 4.663253208716269 0 0 0
3037 1 20.264026062588442 9.899527349120993 3.1043466666666113 0 0 0
3043 1 23.381568661097866 9.899527349120989 3.104346666666611 0 0 0
3046 2 21.822797361843154 8.999570319890966 4.663253208716273 0 0 0
3049 1 26.4991112596073 9.899527349120989 3.104346666666611 0 0 0
3052 2 24.94033996035258 8.999570319890966 4.663253208716273 0 0 0
3055 1 29.61665385811672 9.899527349120989 3.1043466666666113 0 0 0
3058 2 28.05788255886201 8.999570319890964 4.663253208716274 0 0 0
3064 2 31.17542515737144 8.999570319890966 4.66325320871627 0 0 0
6003 2 1.5587704715319213 11.69944140758101 4.6632532087162675 0 0 0
6009 2 4.676313070041279 11.699441407581029 4.663253208716268 0 0 0
6008 1 3.1175417707865942 12.599398436811057 3.1043466666666064 0 0 0
6015 2 7.793855668550701 11.699441407581023 4.663253208716268 0 0 0
6014 1 6.235084369295992 12.599398436811057 3.104346666666611 0 0 0
6020 1 9.352626967805422 12.59939843681105 3.104346666666609 0 0 0
6021 2 10.911398267060136 11.699441407581023 4.663253208716274 0 0 0
6026 1 12.470169566314855 12.599398436811057 3.1043466666666086 0 0 0
6027 2 14.028940865569568 11.699441407581023 4.66325320871627 0 0 0
6032 1 15.58771216482429 12.599398436811057 3.104346666666611 0 0 0
6033 2 17.146483464079008 11.699441407581023 4.66325320871627 0 0 0
6038 1 18.70525476333372 12.599398436811054 3.104346666666611 0 0 0
6039 2 20.264026062588442 11.699441407581023 4.663253208716269 0 0 0
6045 2 23.381568661097855 11.699441407581022 4.663253208716271 0 0 0
6044 1 21.822797361843154 12.599398436811057 3.1043466666666117 0 0 0
6051 2 26.49911125960728 11.699441407581023 4.663253208716269 0 0 0
6050 1 24.94033996035257 12.599398436811057 3.1043466666666117 0 0 0
6057 2 29.616653858116702 11.699441407581023 4.663253208716275 0 0 0
6056 1 28.057882558861987 12.599398436811057 3.1043466666666113 0 0 0
6062 1 31.175425157371407 12.599398436811057 3.1043466666666153 0 0 0
6001 1 1.5587704715319426 15.299269524501096 3.1043466666666086 0 0 0
6007 1 4.676313070041314 15.299269524501117 3.1043466666666117 0 0 0
6010 2 3.117541770786628 14.399312495271081 4.663253208716269 0 0 0
6013 1 7.793855668550724 15.299269524501108 3.104346666666611 0 0 0
6016 2 6.235084369296014 14.39931249527109 4.663253208716271 0 0 0
6022 2 9.35262696780544 14.39931249527109 4.66325320871627 0 0 0
6019 1 10.911398267060154 15.299269524501117 3.104346666666611 0 0 0
6028 2 12.470169566314873 14.399312495271094 4.663253208716269 0 0 0
6025 1 14.02894086556959 15.299269524501117 3.104346666666611 0 0 0
6034 2 15.587712164824309 14.399312495271094 4.66325320871627 0 0 0
6031 1 17.146483464079022 15.299269524501117 3.1043466666666113 0 0 0
6040 2 18.70525476333374 14.399312495271088 4.663253208716269 0 0 0
6037 1 20.264026062588453 15.299269524501117 3.1043466666666126 0 0 0
6043 1 23.38156866109787 15.299269524501117 3.1043466666666126 0 0 0
6046 2 21.822797361843165 14.39931249527109 4.663253208716272 0 0 0
6049 1 26.4991112596073 15.299269524501117 3.1043466666666126 0 0 0
6052 2 24.94033996035258 14.39931249527109 4.66325320871627 0 0 0
6055 1 29.61665385811672 15.299269524501117 3.1043466666666126 0 0 0
6058 2 28.05788255886201 14.399312495271094 4.663253208716272 0 0 0
6064 2 31.17542515737143 14.399312495271094 4.663253208716275 0 0 0
9003 2 1.5587704715319206 17.09918358296113 4.663253208716268 0 0 0
9009 2 4.676313070041279 17.09918358296114 4.663253208716271 0 0 0
9008 1 3.1175417707865956 17.999140612191166 3.1043466666666086 0 0 0
9015 2 7.793855668550701 17.099183582961146 4.66325320871627 0 0 0
9014 1 6.235084369295989 17.999140612191173 3.104346666666611 0 0 0
9020 1 9.352626967805422 17.999140612191173 3.104346666666611 0 0 0
9021 2 10.911398267060136 17.099183582961146 4.663253208716272 0 0 0
9026 1 12.470169566314855 17.999140612191173 3.104346666666611 0 0 0
9027 2 14.028940865569568 17.099183582961153 4.663253208716269 0 0 0
9032 1 15.58771216482429 17.999140612191173 3.1043466666666113 0 0 0
9033 2 17.146483464079008 17.099183582961146 4.66325320871627 0 0 0
9038 1 18.70525476333372 17.999140612191173 3.1043466666666126 0 0 0
9039 2 20.264026062588442 17.099183582961146 4.663253208716269 0 0 0
9045 2 23.381568661097855 17.099183582961146 4.663253208716271 0 0 0
9044 1 21.822797361843154 17.999140612191173 3.104346666666613 0 0 0
9051 2 26.49911125960728 17.099183582961146 4.663253208716269 0 0 0
9050 1 24.94033996035257 17.999140612191173 3.104346666666613 0 0 0
9057 2 29.616653858116685 17.099183582961146 4.663253208716274 0 0 0
9056 1 28.057882558861987 17.999140612191173 3.1043466666666126 0 0 0
9062 1 31.175425157371397 17.999140612191173 3.104346666666615 0 0 0
9001 1 1.5587704715319433 20.699011699881215 3.104346666666608 0 0 0
9007 1 4.676313070041314 20.69901169988123 3.104346666666611 0 0 0
9010 2 3.117541770786629 19.799054670651184 4.663253208716267 0 0 0
9013 1 7.793855668550724 20.699011699881222 3.1043466666666113 0 0 0
9016 2 6.235084369296013 19.79905467065121 4.66325320871627 0 0 0
9022 2 9.35262696780544 19.79905467065121 4.66325320871627 0 0 0
9019 1 10.911398267060159 20.699011699881222 3.1043466666666095 0 0 0
9028 2 12.470169566314873 19.79905467065121 4.663253208716271 0 0 0
9025 1 14.02894086556959 20.699011699881222 3.104346666666611 0 0 0
9034 2 15.587712164824309 19.79905467065121 4.66325320871627 0 0 0
9031 1 17.146483464079022 20.69901169988123 3.104346666666613 0 0 0
9040 2 18.70525476333374 19.79905467065121 4.663253208716269 0 0 0
9037 1 20.264026062588453 20.699011699881236 3.104346666666613 0 0 0
9043 1 23.381568661097873 20.699011699881222 3.104346666666612 0 0 0
9046 2 21.822797361843165 19.79905467065121 4.663253208716271 0 0 0
9049 1 26.4991112596073 20.699011699881222 3.1043466666666117 0 0 0
9052 2 24.94033996035258 19.79905467065121 4.663253208716271 0 0 0
9055 1 29.61665385811672 20.69901169988123 3.104346666666613 0 0 0
9058 2 28.05788255886201 19.79905467065121 4.66325320871627 0 0 0
9064 2 31.17542515737143 19.79905467065121 4.663253208716272 0 0 0
12003 2 1.5587704715319195 22.498925758341244 4.663253208716267 0 0 0
12009 2 4.676313070041279 22.498925758341247 4.663253208716268 0 0 0
12008 1 3.117541770786595 23.39888278757128 3.1043466666666077 0 0 0
12015 2 7.793855668550701 22.498925758341247 4.66325320871627 0 0 0
12014 1 6.235084369295989 23.398882787571285 3.1043466666666126 0 0 0
12020 1 9.352626967805422 23.398882787571274 3.104346666666611 0 0 0
12021 2 10.911398267060141 22.498925758341247 4.663253208716271 0 0 0
12026 1 12.470169566314855 23.39888278757128 3.104346666666611 0 0 0
12027 2 14.028940865569574 22.498925758341247 4.663253208716271 0 0 0
12032 1 15.58771216482429 23.398882787571285 3.104346666666612 0 0 0
12033 2 17.146483464079 22.498925758341258 4.663253208716272 0 0 0
12038 1 18.705254763333716 23.39888278757129 3.104346666666613 0 0 0
12039 2 20.264026062588435 22.49892575834126 4.663253208716271 0 0 0
12045 2 23.381568661097855 22.498925758341247 4.663253208716275 0 0 0
12044 1 21.822797361843143 23.39888278757129 3.104346666666611 0 0 0
12051 2 26.49911125960728 22.498925758341258 4.663253208716268 0 0 0
12050 1 24.94033996035257 23.398882787571285 3.104346666666611 0 0 0
12057 2 29.616653858116685 22.498925758341247 4.663253208716273 0 0 0
12056 1 28.057882558861987 23.39888278757129 3.1043466666666126 0 0 0
12062 1 31.175425157371397 23.398882787571285 3.1043466666666135 0 0 0
12001 1 1.5587704715319495 26.098753875261334 3.104346666666605 0 0 0
12007 1 4.676313070041313 26.098753875261348 3.104346666666608 0 0 0
12010 2 3.117541770786628 25.198796846031303 4.663253208716263 0 0 0
12013 1 7.7938556685507265 26.09875387526134 3.104346666666611 0 0 0
12016 2 6.235084369296013 25.198796846031318 4.66325320871627 0 0 0
12022 2 9.35262696780544 25.198796846031314 4.663253208716268 0 0 0
12019 1 10.911398267060154 26.09875387526134 3.1043466666666117 0 0 0
12028 2 12.470169566314876 25.198796846031318 4.663253208716268 0 0 0
12025 1 14.028940865569584 26.098753875261348 3.1043466666666117 0 0 0
12034 2 15.5877121648243 25.198796846031318 4.66325320871627 0 0 0
12031 1 17.14648346407901 26.098753875261348 3.104346666666611 0 0 0
12040 2 18.705254763333727 25.198796846031318 4.663253208716268 0 0 0
12037 1 20.264026062588442 26.09875387526134 3.1043466666666095 0 0 0
12043 1 23.381568661097866 26.098753875261348 3.104346666666609 0 0 0
12046 2 21.822797361843154 25.198796846031318 4.663253208716271 0 0 0
12049 1 26.4991112596073 26.098753875261348 3.1043466666666086 0 0 0
12052 2 24.94033996035258 25.198796846031325 4.663253208716269 0 0 0
12055 1 29.61665385811672 26.098753875261348 3.1043466666666144 0 0 0
12058 2 28.05788255886201 25.198796846031325 4.66325320871627 0 0 0
12064 2 31.17542515737143 25.198796846031318 4.66325320871627 0 0 0
15003 2 1.5587704715319242 27.89866793372137 4.663253208716265 0 0 0
15009 2 4.676313070041268 27.898667933721377 4.663253208716261 0 0 0
15008 1 3.1175417707865916 28.79862496295142 3.104346666666606 0 0 0
15015 2 7.793855668550701 27.898667933721377 4.663253208716267 0 0 0
15014 1 6.235084369295989 28.798624962951415 3.104346666666611 0 0 0
15020 1 9.352626967805422 28.798624962951404 3.1043466666666144 0 0 0
15021 2 10.911398267060136 27.898667933721374 4.66325320871627 0 0 0
15026 1 12.47016956631485 28.798624962951404 3.1043466666666157 0 0 0
15027 2 14.028940865569568 27.898667933721374 4.663253208716269 0 0 0
15032 1 15.587712164824284 28.798624962951404 3.1043466666666144 0 0 0
15033 2 17.146483464079 27.898667933721377 4.663253208716269 0 0 0
15038 1 18.70525476333372 28.7986249629514 3.104346666666611 0 0 0
15039 2 20.264026062588442 27.898667933721374 4.663253208716269 0 0 0
15045 2 23.381568661097855 27.898667933721377 4.663253208716274 0 0 0
15044 1 21.822797361843154 28.798624962951404 3.104346666666609 0 0 0
15051 2 26.49911125960728 27.898667933721377 4.66325320871627 0 0 0
15050 1 24.94033996035257 28.798624962951415 3.104346666666608 0 0 0
15057 2 29.616653858116702 27.898667933721377 4.663253208716273 0 0 0
15056 1 28.057882558861987 28.798624962951415 3.104346666666611 0 0 0
15062 1 31.175425157371407 28.798624962951415 3.1043466666666126 0 0 0
15001 1 1.5587704715319404 31.498496050641457 3.1043466666666077 0 0 0
15007 1 4.676313070041313 31.49849605064147 3.104346666666611 0 0 0
15010 2 3.1175417707866226 30.59853902141144 4.663253208716264 0 0 0
15013 1 7.793855668550721 31.49849605064147 3.104346666666613 0 0 0
15016 2 6.23508436929601 30.59853902141144 4.663253208716267 0 0 0
15022 2 9.35262696780544 30.59853902141144 4.663253208716269 0 0 0
15019 1 10.911398267060154 31.49849605064147 3.1043466666666157 0 0 0
15028 2 12.470169566314866 30.598539021411433 4.66325320871627 0 0 0
15025 1 14.028940865569584 31.49849605064147 3.1043466666666157 0 0 0
15034 2 15.5877121648243 30.598539021411433 4.663253208716272 0 0 0
15031 1 17.146483464079022 31.49849605064147 3.104346666666612 0 0 0
15040 2 18.70525476333374 30.598539021411423 4.663253208716274 0 0 0
15037 1 20.264026062588453 31.49849605064147 3.1043466666666113 0 0 0
15043 1 23.38156866109787 31.49849605064147 3.104346666666608 0 0 0
15046 2 21.822797361843165 30.598539021411433 4.663253208716274 0 0 0
15049 1 26.4991112596073 31.49849605064147 3.104346666666611 0 0 0
15052 2 24.94033996035258 30.59853902141144 4.663253208716271 0 0 0
15055 1 29.61665385811672 31.49849605064147 3.104346666666611 0 0 0
15058 2 28.05788255886201 30.598539021411433 4.663253208716271 0 0 0
15064 2 31.17542515737144 30.598539021411433 4.66325320871627 0 0 0
18003 2 1.5587704715319208 33.2984101091015 4.663253208716268 0 0 0
18009 2 4.676313070041276 33.29841010910152 4.663253208716262 0 0 0
18008 1 3.117541770786593 34.198367138331534 3.1043466666666086 0 0 0
18015 2 7.793855668550698 33.29841010910152 4.663253208716266 0 0 0
18014 1 6.235084369295985 34.198367138331534 3.104346666666611 0 0 0
18020 1 9.352626967805422 34.198367138331534 3.1043466666666144 0 0 0
18021 2 10.911398267060141 33.29841010910152 4.663253208716269 0 0 0
18026 1 12.470169566314855 34.198367138331534 3.1043466666666157 0 0 0
18027 2 14.028940865569574 33.29841010910152 4.663253208716269 0 0 0
18032 1 15.58771216482429 34.198367138331534 3.104346666666614 0 0 0
18033 2 17.146483464079008 33.2984101091015 4.663253208716269 0 0 0
18038 1 18.70525476333372 34.198367138331534 3.104346666666612 0 0 0
18039 2 20.264026062588442 33.2984101091015 4.663253208716268 0 0 0
18045 2 23.381568661097855 33.29841010910152 4.663253208716275 0 0 0
18044 1 21.822797361843154 34.198367138331534 3.104346666666611 0 0 0
18051 2 26.49911125960728 33.29841010910152 4.663253208716269 0 0 0
18050 1 24.94033996035257 34.198367138331534 3.104346666666611 0 0 0
18057 2 29.616653858116702 33.2984101091015 4.663253208716268 0 0 0
18056 1 28.057882558861987 34.198367138331534 3.104346666666611 0 0 0
18062 1 31.175425157371418 34.198367138331534 3.1043466666666113 0 0 0
18001 1 1.5587704715319417 36.89823822602159 3.104346666666608 0 0 0
18007 1 4.676313070041309 36.89823822602162 3.1043466666666095 0 0 0
18010 2 3.117541770786628 35.99828119679157 4.663253208716263 0 0 0
18013 1 7.793855668550724 36.89823822602159 3.104346666666612 0 0 0
18016 2 6.235084369296008 35.99828119679158 4.6632532087162675 0 0 0
18022 2 9.35262696780544 35.99828119679157 4.663253208716269 0 0 0
18019 1 10.911398267060154 36.89823822602159 3.1043466666666144 0 0 0
18028 2 12.470169566314866 35.99828119679157 4.66325320871627 0 0 0
18025 1 14.028940865569588 36.89823822602159 3.1043466666666135 0 0 0
18034 2 15.587712164824305 35.99828119679157 4.6632532087162675 0 0 0
18031 1 17.146483464079022 36.89823822602159 3.1043466666666126 0 0 0
18040 2 18.70525476333374 35.99828119679157 4.663253208716269 0 0 0
18037 1 20.264026062588453 36.89823822602159 3.1043466666666113 0 0 0
18043 1 23.38156866109787 36.89823822602159 3.104346666666611 0 0 0