LAMMPS data file via write_data, version 2 Aug 2023, timestep = 974, units = metal

46416 atoms
3 atom types

0 1558.7666000831075 xlo xhi
0 86.39569649650929 ylo yhi
0 50 zlo zhi
0 0 0 xy xz yz

Masses

1 95.94
2 32.065
3 32.065

Atoms # atomic

1 3 1.558765772365179 0.8999550388464892 1.545439384734937 0 0 0
2 3 4.6762989725287465 0.8999550388460156 1.5454393847344696 0 0 0
3 3 7.793832172693641 0.8999550388461695 1.545439384735341 0 0 0
4 3 10.911365372862203 0.8999550388459321 1.545439384735042 0 0 0
5 3 14.028898573027433 0.8999550388455981 1.5454393847346455 0 0 0
6 3 17.146431773192784 0.8999550388450802 1.54543938473508 0 0 0
7 3 20.26396497336216 0.89995503884616 1.545439384735138 0 0 0
8 3 23.38149817352786 0.8999550388452043 1.545439384734708 0 0 0
9 3 26.49903137369266 0.8999550388454592 1.5454393847350083 0 0 0
10 3 29.616564573859375 0.899955038845596 1.545439384734952 0 0 0
11 3 32.734097774025344 0.8999550388455371 1.5454393847348662 0 0 0
12 3 35.8516309741925 0.8999550388457277 1.5454393847350332 0 0 0
13 3 38.969164174357914 0.8999550388454118 1.5454393847347963 0 0 0
14 3 42.086697374522906 0.8999550388452641 1.5454393847349013 0 0 0
15 3 3.1175323724462443 3.5998205543610884 1.5454393847343786 0 0 0
16 3 6.235065572608917 3.599820554363221 1.5454393847350423 0 0 0
17 3 9.352598772776256 3.599820554361766 1.5454393847348924 0 0 0
18 3 12.470131972944108 3.599820554361838 1.5454393847355885 0 0 0
19 3 15.587665173110231 3.5998205543615596 1.5454393847345158 0 0 0
20 3 18.705198373277746 3.5998205543613357 1.5454393847352306 0 0 0
21 3 21.822731573445264 3.599820554361096 1.5454393847350225 0 0 0
22 3 24.940264773610053 3.5998205543614334 1.5454393847349248 0 0 0
23 3 28.05779797377682 3.5998205543614508 1.5454393847351577 0 0 0
24 3 31.17533117394223 3.59982055436166 1.5454393847349486 0 0 0
25 3 34.29286437410859 3.5998205543614423 1.545439384734866 0 0 0
26 3 37.41039757427515 3.5998205543616253 1.5454393847351229 0 0 0
27 3 40.527930774440144 3.599820554361257 1.5454393847349803 0 0 0
28 3 1.5587657723640769 6.299686069877583 1.5454393847343426 0 0 0
29 3 4.676298972531518 6.299686069877251 1.5454393847343488 0 0 0
30 3 7.793832172695456 6.299686069878314 1.5454393847351608 0 0 0
31 3 10.911365372862413 6.299686069877663 1.5454393847356074 0 0 0
32 3 14.028898573027268 6.299686069877836 1.5454393847348917 0 0 0
33 3 17.146431773191768 6.299686069877181 1.5454393847346 0 0 0
34 3 20.263964973361844 6.299686069877628 1.5454393847353365 0 0 0
35 3 23.381498173527948 6.299686069876694 1.545439384734728 0 0 0
36 3 26.499031373693146 6.299686069877386 1.5454393847350902 0 0 0
37 3 29.61656457385922 6.299686069877676 1.5454393847352548 0 0 0
38 3 32.73409777402559 6.299686069877561 1.5454393847348304 0 0 0
39 3 35.85163097419247 6.29968606987745 1.5454393847350592 0 0 0
40 3 38.96916417435747 6.299686069877264 1.545439384735138 0 0 0
41 3 42.086697374522906 6.299686069877303 1.5454393847350223 0 0 0
42 3 3.117532372444644 8.999551585393169 1.5454393847340795 0 0 0
43 3 6.235065572609487 8.999551585392854 1.545439384734435 0 0 0
44 3 9.35259877277778 8.999551585394604 1.5454393847352939 0 0 0
45 3 12.470131972943516 8.999551585393645 1.5454393847353844 0 0 0
46 3 15.587665173109174 8.999551585393524 1.5454393847346168 0 0 0
47 3 18.705198373278186 8.999551585393018 1.5454393847353864 0 0 0
48 3 21.822731573445424 8.999551585393364 1.5454393847348638 0 0 0
49 3 24.94026477361055 8.999551585393396 1.5454393847349503 0 0 0
50 3 28.057797973777006 8.999551585393117 1.545439384735101 0 0 0
51 3 31.175331173942197 8.99955158539346 1.545439384734854 0 0 0
52 3 34.29286437410868 8.999551585393721 1.5454393847349706 0 0 0
53 3 37.41039757427483 8.999551585393446 1.5454393847351213 0 0 0
54 3 40.5279307744401 8.999551585393217 1.5454393847349805 0 0 0
55 3 1.5587657723633117 11.699417100908228 1.5454393847348422 0 0 0
56 3 4.676298972530622 11.699417100908732 1.5454393847349426 0 0 0
57 3 7.793832172695014 11.699417100910185 1.5454393847343204 0 0 0
58 3 10.911365372860834 11.699417100909159 1.5454393847349401 0 0 0
59 3 14.028898573026517 11.699417100908741 1.5454393847354664 0 0 0
60 3 17.146431773193566 11.699417100909097 1.545439384734618 0 0 0
61 3 20.26396497336234 11.699417100909974 1.5454393847353076 0 0 0
62 3 23.381498173528072 11.699417100909077 1.5454393847349557 0 0 0
63 3 26.499031373692908 11.699417100909232 1.5454393847347636 0 0 0
64 3 29.616564573859375 11.699417100909303 1.5454393847349412 0 0 0
65 3 32.734097774025784 11.699417100909509 1.5454393847351442 0 0 0
66 3 35.851630974192226 11.69941710090944 1.5454393847349868 0 0 0
67 3 38.9691641743573 11.69941710090931 1.5454393847348582 0 0 0
68 3 42.086697374522934 11.699417100909322 1.5454393847350818 0 0 0
69 3 3.117532372446191 14.399282616425985 1.5454393847344496 0 0 0
70 3 6.235065572607915 14.399282616424832 1.5454393847351182 0 0 0
71 3 9.352598772776672 14.39928261642476 1.5454393847349315 0 0 0
72 3 12.470131972943319 14.399282616424358 1.5454393847352441 0 0 0
73 3 15.587665173109883 14.399282616425458 1.545439384734858 0 0 0
74 3 18.70519837327889 14.399282616425106 1.5454393847350443 0 0 0
75 3 21.822731573445093 14.399282616425506 1.5454393847350376 0 0 0
76 3 24.940264773610217 14.399282616425163 1.5454393847349666 0 0 0
77 3 28.057797973776736 14.399282616424971 1.5454393847346988 0 0 0
78 3 31.175331173942705 14.3992826164253 1.5454393847351438 0 0 0
79 3 34.29286437410893 14.399282616425005 1.5454393847350039 0 0 0
80 3 37.41039757427481 14.39928261642521 1.5454393847347914 0 0 0
81 3 40.527930774440065 14.399282616425202 1.5454393847350523 0 0 0
82 3 1.5587657723648172 17.09914813194309 1.5454393847329608 0 0 0
83 3 4.676298972530609 17.099148131939664 1.545439384734847 0 0 0
84 3 7.79383217269322 17.099148131940726 1.5454393847349481 0 0 0
85 3 10.911365372861127 17.0991481319405 1.5454393847347367 0 0 0
86 3 14.02889857302649 17.099148131940517 1.5454393847354946 0 0 0
87 3 17.146431773193658 17.099148131941686 1.5454393847352181 0 0 0
88 3 20.263964973361844 17.099148131941472 1.5454393847349337 0 0 0
89 3 23.38149817352746 17.099148131940712 1.5454393847348136 0 0 0
90 3 26.499031373693075 17.099148131941273 1.5454393847350845 0 0 0
91 3 29.616564573859456 17.099148131941185 1.5454393847351044 0 0 0
92 3 32.734097774025805 17.099148131941103 1.5454393847351293 0 0 0
93 3 35.85163097419249 17.099148131940876 1.545439384734821 0 0 0
94 3 38.96916417435765 17.09914813194091 1.545439384735028 0 0 0
95 3 42.08669737452307 17.0991481319412 1.545439384735174 0 0 0
96 3 3.117532372444964 19.799013647457723 1.5454393847337409 0 0 0
97 3 6.2350655726101465 19.79901364745557 1.5454393847344559 0 0 0
98 3 9.352598772776297 19.799013647457443 1.5454393847352372 0 0 0
99 3 12.470131972944335 19.79901364745619 1.5454393847358823 0 0 0
100 3 15.5876651731109 19.79901364745745 1.5454393847345418 0 0 0
101 3 18.705198373277728 19.799013647457443 1.5454393847353314 0 0 0
102 3 21.82273157344504 19.799013647456388 1.5454393847345305 0 0 0
103 3 24.94026477361053 19.799013647457105 1.5454393847351509 0 0 0
104 3 28.057797973776687 19.799013647457084 1.5454393847351515 0 0 0
105 3 31.175331173942315 19.799013647456995 1.5454393847348926 0 0 0
106 3 34.29286437410865 19.799013647457066 1.5454393847348706 0 0 0
107 3 37.41039757427515 19.79901364745689 1.5454393847350352 0 0 0
108 3 40.52793077444043 19.799013647457098 1.5454393847350245 0 0 0
109 3 1.5587657723626116 22.4988791629729 1.5454393847336938 0 0 0
110 3 4.676298972530437 22.498879162972255 1.5454393847347767 0 0 0
111 3 7.793832172695048 22.498879162972123 1.545439384734622 0 0 0
112 3 10.911365372860613 22.498879162973623 1.5454393847352659 0 0 0
113 3 14.028898573026952 22.498879162972585 1.545439384735256 0 0 0
114 3 17.14643177319258 22.4988791629732 1.5454393847348555 0 0 0
115 3 20.26396497336127 22.49887916297308 1.545439384734958 0 0 0
116 3 23.38149817352804 22.49887916297223 1.545439384734642 0 0 0
117 3 26.49903137369328 22.498879162973253 1.545439384735243 0 0 0
118 3 29.61656457385958 22.49887916297272 1.54543938473498 0 0 0
119 3 32.73409777402544 22.498879162972955 1.545439384734868 0 0 0
120 3 35.85163097419234 22.498879162973076 1.545439384734963 0 0 0
121 3 38.96916417435786 22.498879162972873 1.5454393847349095 0 0 0
122 3 42.086697374522956 22.498879162972926 1.545439384735037 0 0 0
123 3 3.1175323724457997 25.198744678489934 1.5454393847347445 0 0 0
124 3 6.2350655726116795 25.198744678489373 1.5454393847352166 0 0 0
125 3 9.35259877277661 25.198744678489152 1.5454393847342316 0 0 0
126 3 12.470131972943367 25.198744678489124 1.5454393847357655 0 0 0
127 3 15.587665173110448 25.19874467848837 1.5454393847348176 0 0 0
128 3 18.705198373278378 25.198744678489216 1.5454393847351888 0 0 0
129 3 21.822731573445214 25.198744678488275 1.5454393847345615 0 0 0
130 3 24.94026477361029 25.198744678488943 1.5454393847351036 0 0 0
131 3 28.057797973776395 25.19874467848877 1.5454393847350565 0 0 0
132 3 31.175331173942332 25.19874467848849 1.5454393847349657 0 0 0
133 3 34.29286437410898 25.19874467848923 1.5454393847350332 0 0 0
134 3 37.41039757427531 25.1987446784891 1.545439384734926 0 0 0
135 3 40.527930774440485 25.198744678488797 1.5454393847349306 0 0 0
136 3 1.5587657723613428 27.89861019400466 1.5454393847339738 0 0 0
137 3 4.676298972528534 27.89861019400492 1.5454393847355563 0 0 0
138 3 7.793832172694776 27.898610194004718 1.5454393847348247 0 0 0
139 3 10.91136537286086 27.898610194005347 1.5454393847348888 0 0 0
140 3 14.028898573028288 27.898610194004416 1.5454393847356491 0 0 0
141 3 17.146431773193495 27.898610194004675 1.545439384734911 0 0 0
142 3 20.26396497336145 27.898610194005087 1.5454393847348327 0 0 0
143 3 23.381498173527724 27.89861019400399 1.5454393847349217 0 0 0
144 3 26.49903137369292 27.898610194005048 1.5454393847352152 0 0 0
145 3 29.616564573859282 27.898610194004526 1.5454393847349706 0 0 0
146 3 32.73409777402615 27.898610194004824 1.5454393847349224 0 0 0
147 3 35.85163097419243 27.89861019400499 1.5454393847349508 0 0 0
148 3 38.96916417435769 27.898610194004775 1.545439384734881 0 0 0
149 3 42.08669737452302 27.898610194004743 1.5454393847349288 0 0 0
150 3 3.117532372445379 30.59847570952118 1.54543938473445 0 0 0
151 3 6.235065572613037 30.598475709519914 1.5454393847352195 0 0 0
152 3 9.352598772777418 30.598475709520553 1.5454393847341488 0 0 0
153 3 12.470131972943713 30.59847570952141 1.5454393847357588 0 0 0
154 3 15.587665173111768 30.598475709520628 1.5454393847348296 0 0 0
155 3 18.705198373278947 30.598475709520805 1.545439384735305 0 0 0
156 3 21.82273157344487 30.598475709520187 1.545439384734382 0 0 0
157 3 24.9402647736097 30.598475709520642 1.5454393847351036 0 0 0
158 3 28.05779797377621 30.598475709520955 1.545439384735258 0 0 0
159 3 31.175331173942375 30.5984757095206 1.5454393847348555 0 0 0
160 3 34.29286437410895 30.598475709520873 1.5454393847349892 0 0 0
161 3 37.410397574275194 30.598475709520628 1.5454393847350407 0 0 0
162 3 40.52793077444037 30.59847570952064 1.5454393847348573 0 0 0
163 3 1.558765772361644 33.298341225035884 1.5454393847341243 0 0 0
164 3 4.676298972531188 33.29834122503591 1.5454393847357668 0 0 0
165 3 7.793832172694819 33.298341225036474 1.5454393847346082 0 0 0
166 3 10.911365372860324 33.29834122503637 1.5454393847353785 0 0 0
167 3 14.028898573026295 33.29834122503668 1.5454393847352 0 0 0
168 3 17.146431773193104 33.29834122503671 1.5454393847350019 0 0 0
169 3 20.263964973361844 33.29834122503693 1.545439384734958 0 0 0
170 3 23.38149817352787 33.29834122503616 1.5454393847348302 0 0 0
171 3 26.499031373693292 33.29834122503695 1.5454393847352315 0 0 0
172 3 29.616564573859353 33.29834122503672 1.5454393847350287 0 0 0
173 3 32.734097774026075 33.29834122503665 1.5454393847348802 0 0 0
174 3 35.85163097419249 33.29834122503684 1.5454393847350523 0 0 0
175 3 38.96916417435755 33.298341225036594 1.545439384734967 0 0 0
176 3 42.08669737452279 33.298341225036545 1.5454393847349857 0 0 0
177 3 3.117532372448953 35.99820674055321 1.5454393847338672 0 0 0
178 3 6.2350655726114885 35.998206740552476 1.545439384736487 0 0 0
179 3 9.352598772777888 35.99820674055198 1.5454393847338543 0 0 0
180 3 12.470131972944973 35.99820674055249 1.5454393847358994 0 0 0
181 3 15.587665173110729 35.9982067405526 1.5454393847343955 0 0 0
182 3 18.70519837327764 35.998206740552384 1.5454393847349612 0 0 0
183 3 21.822731573445118 35.998206740552014 1.5454393847350578 0 0 0
184 3 24.940264773610522 35.998206740552654 1.5454393847347576 0 0 0
185 3 28.057797973776342 35.998206740552696 1.5454393847349563 0 0 0
186 3 31.17533117394222 35.99820674055254 1.5454393847348271 0 0 0
187 3 34.292864374109065 35.998206740552696 1.5454393847349612 0 0 0
188 3 37.41039757427529 35.99820674055263 1.5454393847349794 0 0 0
189 3 40.52793077444043 35.998206740552334 1.5454393847348242 0 0 0
190 3 1.5587657723594512 38.698072256070525 1.5454393847339403 0 0 0
191 3 4.676298972530653 38.6980722560669 1.545439384735844 0 0 0
192 3 7.793832172695019 38.69807225606876 1.5454393847344012 0 0 0
193 3 10.911365372862289 38.69807225606879 1.5454393847352688 0 0 0
194 3 14.028898573027355 38.69807225606832 1.545439384735117 0 0 0
195 3 17.146431773192603 38.69807225606883 1.5454393847349155 0 0 0
196 3 20.263964973361777 38.698072256068535 1.5454393847351653 0 0 0
197 3 23.381498173528502 38.69807225606808 1.5454393847350911 0 0 0
198 3 26.499031373692972 38.69807225606841 1.5454393847349226 0 0 0
199 3 29.616564573859012 38.6980722560683 1.545439384734928 0 0 0
200 3 32.73409777402611 38.69807225606844 1.5454393847350543 0 0 0
201 3 35.85163097419274 38.69807225606848 1.545439384735039 0 0 0
202 3 38.969164174357495 38.6980722560683 1.545439384734911 0 0 0
203 3 42.08669737452273 38.6980722560684 1.5454393847350365 0 0 0
204 3 3.117532372443581 41.39793777158453 1.5454393847344972 0 0 0
205 3 6.235065572613714 41.39793777158311 1.5454393847347874 0 0 0
206 3 9.352598772776105 41.397937771584616 1.5454393847342303 0 0 0
207 3 12.470131972942783 41.39793777158475 1.5454393847356918 0 0 0
208 3 15.587665173110691 41.39793777158416 1.5454393847346508 0 0 0
209 3 18.705198373276954 41.39793777158445 1.5454393847352725 0 0 0
210 3 21.822731573446237 41.3979377715842 1.5454393847350578 0 0 0
211 3 24.940264773611194 41.397937771584694 1.5454393847350034 0 0 0
212 3 28.057797973776314 41.39793777158397 1.5454393847349666 0 0 0
213 3 31.175331173942343 41.39793777158422 1.5454393847348311 0 0 0
214 3 34.29286437410898 41.39793777158441 1.5454393847349752 0 0 0
215 3 37.41039757427517 41.39793777158429 1.5454393847350134 0 0 0
216 3 40.52793077444035 41.3979377715842 1.5454393847348724 0 0 0
217 2 1.5587657723615604 0.8999550388454298 4.663253948599134 0 0 0
218 2 4.676298972527917 0.8999550388454564 4.6632539485978945 0 0 0
219 1 3.1175323724443333 1.7999106924341843 3.1043466666672974 0 0 0
220 2 7.7938321726940325 0.8999550388471389 4.663253948597946 0 0 0
221 1 6.235065572609469 1.7999106924365442 3.1043466666664763 0 0 0
222 1 9.35259877277816 1.7999106924359065 3.1043466666665034 0 0 0
223 2 10.911365372861864 0.8999550388454902 4.6632539485978795 0 0 0
224 1 12.470131972945257 1.7999106924355628 3.10434666666637 0 0 0
225 2 14.028898573027428 0.8999550388456129 4.663253948598558 0 0 0
226 1 15.58766517310992 1.7999106924359745 3.1043466666666384 0 0 0
227 2 17.146431773192727 0.8999550388455694 4.663253948598307 0 0 0
228 1 18.70519837327719 1.79991069243491 3.1043466666666393 0 0 0
229 2 20.263964973361958 0.8999550388460696 4.663253948598367 0 0 0
230 2 23.38149817352804 0.8999550388452755 4.663253948598838 0 0 0
231 1 21.82273157344549 1.7999106924356567 3.1043466666668387 0 0 0
232 2 26.49903137369267 0.8999550388456043 4.6632539485983635 0 0 0
233 1 24.940264773610032 1.799910692435631 3.104346666666772 0 0 0
234 2 29.616564573859158 0.8999550388456704 4.663253948598378 0 0 0
235 1 28.057797973776065 1.7999106924353974 3.104346666666645 0 0 0
236 1 31.175331173942283 1.79991069243568 3.104346666666617 0 0 0
237 2 32.734097774025386 0.8999550388456108 4.663253948598374 0 0 0
238 1 34.29286437410891 1.799910692435465 3.10434666666659 0 0 0
239 2 35.85163097419232 0.8999550388458483 4.663253948598202 0 0 0
240 1 37.41039757427516 1.7999106924358306 3.1043466666666983 0 0 0
241 2 38.96916417435795 0.8999550388455486 4.663253948598662 0 0 0
242 1 40.527930774440314 1.799910692435566 3.1043466666667223 0 0 0
243 2 42.08669737452298 0.8999550388453317 4.663253948598482 0 0 0
244 1 1.5587657723634107 4.499776207950172 3.1043466666668014 0 0 0
245 1 4.676298972528942 4.499776207951159 3.104346666666813 0 0 0
246 2 3.117532372446045 3.599820554362265 4.663253948598917 0 0 0
247 1 7.793832172694193 4.499776207951918 3.104346666666564 0 0 0
248 2 6.235065572609839 3.599820554362445 4.663253948597919 0 0 0
249 2 9.352598772776501 3.5998205543613944 4.663253948598544 0 0 0
250 1 10.9113653728603 4.499776207951115 3.104346666666644 0 0 0
251 2 12.47013197294364 3.5998205543612314 4.663253948597866 0 0 0
252 1 14.02889857302735 4.499776207952041 3.1043466666667165 0 0 0
253 2 15.587665173110413 3.599820554361706 4.663253948598446 0 0 0
254 1 17.146431773193324 4.499776207951193 3.104346666666351 0 0 0
255 2 18.70519837327729 3.5998205543613926 4.6632539485979985 0 0 0
256 1 20.26396497336189 4.499776207951041 3.104346666666844 0 0 0
257 1 23.381498173527643 4.499776207951425 3.1043466666666486 0 0 0
258 2 21.822731573445502 3.5998205543612727 4.663253948598726 0 0 0
259 1 26.499031373693345 4.499776207951265 3.1043466666668045 0 0 0
260 2 24.94026477360998 3.5998205543613593 4.663253948598397 0 0 0
261 1 29.61656457385958 4.499776207951792 3.104346666666837 0 0 0
262 2 28.057797973776612 3.5998205543614867 4.663253948598433 0 0 0
263 2 31.17533117394257 3.5998205543615263 4.663253948598399 0 0 0
264 1 32.734097774025386 4.499776207951545 3.1043466666664665 0 0 0
265 2 34.292864374108454 3.599820554361687 4.663253948598156 0 0 0
266 1 35.85163097419207 4.499776207951481 3.1043466666666824 0 0 0
267 2 37.41039757427516 3.5998205543615587 4.663253948598452 0 0 0
268 1 38.969164174357836 4.499776207951589 3.1043466666668533 0 0 0
269 2 40.52793077444037 3.599820554361259 4.663253948598539 0 0 0
270 1 42.086697374523226 4.499776207951395 3.1043466666666086 0 0 0
271 2 1.5587657723631765 6.29968606987673 4.663253948599582 0 0 0
272 2 4.676298972530241 6.299686069877373 4.663253948597655 0 0 0
273 1 3.117532372447771 7.199641723467006 3.104346666665873 0 0 0
274 2 7.793832172695293 6.299686069878307 4.663253948598721 0 0 0
275 1 6.235065572612749 7.199641723468866 3.104346666666842 0 0 0
276 1 9.352598772778958 7.199641723467903 3.1043466666666606 0 0 0
277 2 10.911365372862045 6.29968606987781 4.663253948597347 0 0 0
278 1 12.470131972945458 7.199641723467781 3.104346666666596 0 0 0
279 2 14.028898573027883 6.299686069877984 4.663253948598424 0 0 0
280 1 15.587665173109775 7.199641723467938 3.1043466666665207 0 0 0
281 2 17.146431773191836 6.299686069876954 4.663253948598242 0 0 0
282 1 18.705198373276573 7.19964172346613 3.104346666666744 0 0 0
283 2 20.2639649733619 6.2996860698777555 4.663253948598291 0 0 0
284 2 23.38149817352829 6.299686069876704 4.663253948598508 0 0 0
285 1 21.82273157344557 7.199641723467441 3.104346666666651 0 0 0
286 2 26.499031373692745 6.299686069877251 4.663253948598362 0 0 0
287 1 24.94026477361025 7.199641723467242 3.1043466666664705 0 0 0
288 2 29.61656457385951 6.299686069877769 4.663253948598563 0 0 0
289 1 28.057797973776097 7.1996417234672885 3.1043466666670225 0 0 0
290 1 31.175331173942602 7.199641723467593 3.1043466666665607 0 0 0
291 2 32.73409777402569 6.299686069877604 4.6632539485981 0 0 0
292 1 34.292864374109115 7.199641723467364 3.104346666666522 0 0 0
293 2 35.851630974192254 6.299686069877559 4.6632539485983155 0 0 0
294 1 37.41039757427497 7.199641723467669 3.1043466666668107 0 0 0
295 2 38.96916417435763 6.299686069877325 4.663253948598555 0 0 0
296 1 40.52793077444008 7.199641723467302 3.1043466666667197 0 0 0
297 2 42.08669737452307 6.299686069877258 4.663253948598228 0 0 0
298 1 1.5587657723650419 9.899507238983887 3.1043466666668587 0 0 0
299 1 4.676298972528826 9.899507238982766 3.1043466666661486 0 0 0
300 2 3.117532372445786 8.99955158539235 4.663253948598338 0 0 0
301 1 7.793832172694087 9.899507238983551 3.1043466666668897 0 0 0
302 2 6.235065572610098 8.999551585393494 4.663253948598761 0 0 0
303 2 9.352598772777844 8.99955158539366 4.663253948597728 0 0 0
304 1 10.91136537286115 9.899507238983913 3.1043466666665553 0 0 0
305 2 12.470131972943951 8.999551585393748 4.6632539485982845 0 0 0
306 1 14.028898573026714 9.899507238983201 3.1043466666668347 0 0 0
307 2 15.58766517310948 8.999551585393505 4.663253948598598 0 0 0
308 1 17.146431773193147 9.899507238982828 3.104346666666519 0 0 0
309 2 18.705198373277472 8.99955158539315 4.663253948597998 0 0 0
310 1 20.26396497336198 9.899507238983274 3.1043466666670447 0 0 0
311 1 23.381498173527927 9.899507238983409 3.1043466666664368 0 0 0
312 2 21.822731573445513 8.999551585393295 4.663253948598671 0 0 0
313 1 26.499031373693708 9.899507238983206 3.104346666666712 0 0 0
314 2 24.940264773610654 8.999551585393077 4.663253948598113 0 0 0
315 1 29.616564573859613 9.899507238983245 3.1043466666667316 0 0 0
316 2 28.0577979737768 8.99955158539335 4.663253948598449 0 0 0
317 2 31.17533117394244 8.999551585393409 4.66325394859849 0 0 0
318 1 32.734097774025635 9.899507238983201 3.1043466666666317 0 0 0
319 2 34.29286437410859 8.999551585393371 4.663253948598183 0 0 0
320 1 35.85163097419194 9.899507238983459 3.104346666666722 0 0 0
321 2 37.410397574274846 8.999551585393565 4.663253948598446 0 0 0
322 1 38.96916417435738 9.899507238983519 3.104346666666692 0 0 0
323 2 40.527930774440165 8.99955158539328 4.663253948598406 0 0 0
324 1 42.08669737452313 9.899507238983146 3.104346666666681 0 0 0
325 2 1.5587657723638748 11.699417100908672 4.663253948598905 0 0 0
326 2 4.676298972529239 11.699417100907857 4.663253948597361 0 0 0
327 1 3.117532372444595 12.599372754497825 3.104346666666174 0 0 0
328 2 7.793832172694664 11.699417100910049 4.663253948598642 0 0 0
329 1 6.235065572611418 12.599372754499703 3.104346666666569 0 0 0
330 1 9.35259877277803 12.599372754499061 3.1043466666664092 0 0 0
331 2 10.911365372860397 11.699417100909912 4.66325394859867 0 0 0
332 1 12.470131972943852 12.59937275449889 3.104346666666995 0 0 0
333 2 14.02889857302723 11.699417100909152 4.663253948598171 0 0 0
334 1 15.587665173110397 12.599372754499118 3.104346666666329 0 0 0
335 2 17.14643177319334 11.699417100909125 4.663253948598449 0 0 0
336 1 18.705198373277735 12.59937275449852 3.1043466666668698 0 0 0
337 2 20.26396497336207 11.699417100909892 4.663253948598393 0 0 0
338 2 23.38149817352855 11.69941710090889 4.6632539485986655 0 0 0
339 1 21.822731573445626 12.599372754499592 3.1043466666669497 0 0 0
340 2 26.499031373693096 11.69941710090932 4.663253948598232 0 0 0
341 1 24.940264773610465 12.599372754499274 3.104346666666533 0 0 0
342 2 29.616564573859073 11.699417100909296 4.663253948598348 0 0 0
343 1 28.057797973776065 12.59937275449896 3.1043466666665536 0 0 0
344 1 31.175331173942542 12.599372754499104 3.1043466666667894 0 0 0
345 2 32.73409777402609 11.699417100909193 4.663253948598409 0 0 0
346 1 34.29286437410938 12.599372754499035 3.104346666666783 0 0 0
347 2 35.85163097419226 11.699417100909399 4.663253948598395 0 0 0
348 1 37.41039757427479 12.599372754499468 3.1043466666666046 0 0 0
349 2 38.96916417435713 11.699417100909384 4.663253948598458 0 0 0
350 1 40.52793077444008 12.599372754499175 3.104346666666767 0 0 0
351 2 42.08669737452311 11.699417100909336 4.663253948598391 0 0 0
352 1 1.5587657723619397 15.299238270015241 3.1043466666658417 0 0 0
353 1 4.676298972529905 15.299238270014438 3.1043466666671153 0 0 0
354 2 3.117532372445405 14.399282616424676 4.66325394859682 0 0 0
355 1 7.793832172693642 15.299238270014179 3.104346666666365 0 0 0
356 2 6.235065572609996 14.399282616424362 4.6632539485984985 0 0 0
357 2 9.352598772777718 14.399282616424694 4.663253948597918 0 0 0
358 1 10.91136537286064 15.29923827001496 3.1043466666668422 0 0 0
359 2 12.470131972943776 14.399282616424916 4.663253948598482 0 0 0
360 1 14.028898573026476 15.299238270014525 3.104346666666636 0 0 0
361 2 15.587665173109588 14.399282616425143 4.663253948598443 0 0 0
362 1 17.14643177319386 15.299238270014873 3.1043466666664097 0 0 0
363 2 18.70519837327827 14.399282616425115 4.663253948598236 0 0 0
364 1 20.26396497336187 15.29923827001533 3.104346666667035 0 0 0
365 1 23.381498173527643 15.299238270015316 3.104346666666614 0 0 0
366 2 21.822731573445026 14.399282616425719 4.663253948598667 0 0 0
367 1 26.49903137369361 15.29923827001496 3.1043466666665007 0 0 0
368 2 24.940264773610636 14.399282616425277 4.663253948598294 0 0 0
369 1 29.61656457385949 15.299238270015097 3.1043466666666713 0 0 0
370 2 28.05779797377651 14.399282616424793 4.663253948598217 0 0 0
371 2 31.17533117394252 14.399282616425376 4.663253948598473 0 0 0
372 1 32.73409777402583 15.29923827001505 3.104346666666793 0 0 0
373 2 34.292864374109115 14.399282616425088 4.66325394859843 0 0 0
374 1 35.85163097419199 15.299238270014866 3.10434666666655 0 0 0
375 2 37.41039757427473 14.399282616425177 4.663253948598388 0 0 0
376 1 38.96916417435734 15.299238270015241 3.104346666666743 0 0 0
377 2 40.52793077444012 14.399282616425143 4.663253948598413 0 0 0
378 1 42.086697374523155 15.299238270015097 3.104346666666668 0 0 0
379 2 1.558765772362464 17.09914813194234 4.663253948598756 0 0 0
380 2 4.676298972530657 17.09914813194036 4.6632539485986575 0 0 0
381 1 3.1175323724478816 17.999103785531357 3.1043466666668444 0 0 0
382 2 7.7938321726939135 17.09914813194104 4.663253948598029 0 0 0
383 1 6.235065572612009 17.99910378553207 3.104346666666678 0 0 0
384 1 9.35259877277752 17.999103785530817 3.1043466666664368 0 0 0
385 2 10.911365372860928 17.099148131940733 4.66325394859907 0 0 0
386 1 12.470131972943744 17.99910378552992 3.104346666667182 0 0 0
387 2 14.028898573026728 17.0991481319406 4.663253948597996 0 0 0
388 1 15.587665173109931 17.999103785531418 3.1043466666664394 0 0 0
389 2 17.146431773193058 17.09914813194156 4.663253948598245 0 0 0
390 1 18.705198373277785 17.999103785531005 3.104346666666852 0 0 0
391 2 20.263964973362285 17.099148131941444 4.66325394859844 0 0 0
392 2 23.38149817352753 17.099148131940847 4.66325394859849 0 0 0
393 1 21.822731573445108 17.999103785531005 3.1043466666665753 0 0 0
394 2 26.499031373693086 17.099148131940957 4.663253948598249 0 0 0
395 1 24.94026477360998 17.999103785531105 3.1043466666666966 0 0 0
396 2 29.616564573859396 17.099148131941142 4.6632539485984035 0 0 0
397 1 28.057797973776186 17.999103785531133 3.104346666666755 0 0 0
398 1 31.17533117394257 17.99910378553112 3.1043466666666695 0 0 0
399 2 32.73409777402596 17.099148131941245 4.66325394859825 0 0 0
400 1 34.29286437410909 17.999103785530917 3.104346666666552 0 0 0
401 2 35.851630974192226 17.09914813194083 4.6632539485983076 0 0 0
402 1 37.41039757427504 17.999103785531137 3.104346666666685 0 0 0
403 2 38.96916417435754 17.09914813194091 4.663253948598545 0 0 0
404 1 40.52793077444008 17.999103785531148 3.1043466666667943 0 0 0
405 2 42.086697374523226 17.09914813194108 4.6632539485983 0 0 0
406 1 1.5587657723606407 20.69896930104837 3.1043466666658217 0 0 0
407 1 4.676298972528925 20.6989693010466 3.104346666666944 0 0 0
408 2 3.117532372445054 19.799013647458292 4.66325394859842 0 0 0
409 1 7.793832172694042 20.6989693010461 3.1043466666660615 0 0 0
410 2 6.2350655726122 19.799013647456395 4.663253948598861 0 0 0
411 2 9.352598772776208 19.799013647457155 4.663253948598511 0 0 0
412 1 10.91136537286052 20.69896930104679 3.104346666667213 0 0 0
413 2 12.470131972944838 19.799013647456174 4.663253948598065 0 0 0
414 1 14.028898573027734 20.698969301046585 3.1043466666666815 0 0 0
415 2 15.587665173110015 19.79901364745701 4.663253948598517 0 0 0
416 1 17.14643177319352 20.698969301047114 3.104346666666758 0 0 0
417 2 18.70519837327768 19.79901364745773 4.663253948598282 0 0 0
418 1 20.263964973361855 20.69896930104666 3.104346666666435 0 0 0
419 1 23.381498173527575 20.698969301046688 3.104346666666541 0 0 0
420 2 21.822731573444983 19.799013647456462 4.6632539485982685 0 0 0
421 1 26.49903137369361 20.698969301047057 3.104346666666953 0 0 0
422 2 24.940264773610167 19.799013647457222 4.6632539485983076 0 0 0
423 1 29.616564573859645 20.698969301046873 3.1043466666667 0 0 0
424 2 28.057797973776854 19.799013647456945 4.663253948598499 0 0 0
425 2 31.1753311739425 19.799013647457127 4.663253948598452 0 0 0
426 1 32.73409777402542 20.698969301046915 3.104346666666561 0 0 0
427 2 34.29286437410868 19.799013647457052 4.663253948598116 0 0 0
428 1 35.851630974191956 20.698969301046887 3.10434666666663 0 0 0
429 2 37.41039757427508 19.79901364745695 4.663253948598424 0 0 0
430 1 38.969164174357836 20.698969301046983 3.104346666666771 0 0 0
431 2 40.52793077444053 19.799013647457077 4.663253948598496 0 0 0
432 1 42.0866973745233 20.698969301047057 3.1043466666667148 0 0 0
433 2 1.5587657723636783 22.49887916297379 4.663253948598108 0 0 0
434 2 4.6762989725291595 22.498879162973296 4.663253948598156 0 0 0
435 1 3.1175323724442827 23.39883481656228 3.104346666666083 0 0 0
436 2 7.7938321726958835 22.49887916297142 4.663253948599072 0 0 0
437 1 6.235065572612458 23.39883481656264 3.104346666666707 0 0 0
438 1 9.352598772777547 23.39883481656312 3.1043466666667974 0 0 0
439 2 10.911365372860585 22.498879162973857 4.663253948598375 0 0 0
440 1 12.470131972944044 23.398834816562736 3.1043466666666606 0 0 0
441 2 14.028898573027014 22.498879162972404 4.663253948598071 0 0 0
442 1 15.587665173109961 23.39883481656296 3.104346666666843 0 0 0
443 2 17.14643177319249 22.49887916297327 4.663253948598797 0 0 0