LAMMPS data file via write_data, version 21 Nov 2023, timestep = 1590, units = metal

47218 atoms
3 atom types

0 1558.7686270536462 xlo xhi
0 86.39572673633424 ylo yhi
0 50 zlo zhi
0 0 0 xy xz yz

Masses

1 95.94
2 32.065
3 32.065

Atoms # atomic

47218 3 1.5587806033256428 0.8999427627863538 1.545471212631665 0 0 0
34661 3 4.676326628097637 0.8999078207436899 1.5455091400197698 0 0 0
34662 3 7.793839640689307 0.8999078173468424 1.545507669733786 0 0 0
34663 3 10.911392886213958 0.8999401272445191 1.5454787462827762 0 0 0
34664 3 14.02894048867418 0.8999350408307881 1.5454826814328075 0 0 0
34665 3 17.146470473631936 0.8999378568939441 1.5454834403041737 0 0 0
34666 3 20.264002728003483 0.8999386708989444 1.5454697107581046 0 0 0
34668 3 23.381550398959718 0.8999426444585025 1.545462188252527 0 0 0
34675 3 26.499095758045165 0.8999360685356075 1.545470667781204 0 0 0
34669 3 29.61663917069558 0.8999214838702451 1.5454892476976985 0 0 0
29063 2 31.175373192113526 41.39795674402226 4.663262809438675 0 0 0
34670 3 3.117548029811049 3.599798333720925 1.5454709624458522 0 0 0
34671 3 6.235082644283091 3.599797757287121 1.5454746573326474 0 0 0
34672 3 9.352623429823169 3.5998017824059216 1.5454702121041337 0 0 0
34673 3 12.470176027413748 3.5998179454933714 1.5454752457900416 0 0 0
34674 3 15.587706891805732 3.599815331305464 1.5454847243962893 0 0 0
34660 3 18.705231967246824 3.599818670777309 1.5454831699459728 0 0 0
34659 3 21.82277339935538 3.599810843661144 1.5454706127209565 0 0 0
34658 3 24.94032097789251 3.5998080779330444 1.5454678254565801 0 0 0
34657 3 28.057865398722004 3.5998037007007824 1.5454777110258207 0 0 0
34656 3 31.17540375010736 3.599804805363845 1.5454933040756003 0 0 0
34655 3 1.5587732839338078 6.29967279057113 1.5454562575871449 0 0 0
34654 3 4.6763131387893475 6.299670846718406 1.545460867969838 0 0 0
34653 3 7.793858112532151 6.299674219794749 1.5454626053858787 0 0 0
34652 3 10.911408265551175 6.299681816099013 1.5454735198497362 0 0 0
34651 3 14.02896208930152 6.299707593603987 1.5455108590060291 0 0 0
34650 3 17.14644566749993 6.299704914722012 1.5455141020366059 0 0 0
34649 3 20.263995273008884 6.299678250170337 1.5454769894459373 0 0 0
34648 3 23.381545038107415 6.299671892991448 1.5454615680021573 0 0 0
34647 3 26.49909489911332 6.299669977123015 1.545465875286122 0 0 0
34646 3 29.61663791167366 6.299672175030273 1.545484178015746 0 0 0
11357 1 23.381530915718656 42.297919642848015 3.104363830624047 0 0 0
34645 3 3.117541749644 8.999539790845807 1.5454467771204368 0 0 0
34644 3 6.2350868430467115 8.999540540775511 1.5454509325365355 0 0 0
34667 3 9.352640169780445 8.99954299503919 1.5454624192124191 0 0 0
34677 3 12.470205704995088 8.999547384251459 1.545504238934575 0 0 0
34702 3 15.587701513310277 8.999539057041908 1.5453934009341033 0 0 0
34678 3 18.70519830375212 8.99954318839048 1.545497719786895 0 0 0
34696 3 21.822766221104402 8.99953985292073 1.5454531154610298 0 0 0
34697 3 24.940321816451494 8.999538501241162 1.545447673047338 0 0 0
34698 3 28.05787158553274 8.999537628935046 1.5454635693196903 0 0 0
34699 3 31.17542866936073 8.999540570915263 1.5455069648299795 0 0 0
34700 3 1.5587682963018796 11.69940940037312 1.5454302956542485 0 0 0
34701 3 4.676312076544297 11.69940833598374 1.5454360974592978 0 0 0
34703 3 7.793857698841299 11.699407700875119 1.5454456647104744 0 0 0
34710 3 10.911402860050243 11.699402650728416 1.5454610832674462 0 0 0
34704 3 14.028947058990138 11.699366558046279 1.5454980059705867 0 0 0
34705 3 17.146455677767285 11.699367684279661 1.5454919758525283 0 0 0
34706 3 20.264005394668835 11.699406255296285 1.5454508065987267 0 0 0
34707 3 23.381556113947322 11.699420367523098 1.5454445941317834 0 0 0
34708 3 26.49909228525142 11.699416557640335 1.545452488077875 0 0 0
34709 3 29.616622882968638 11.699412481841748 1.5454689676609628 0 0 0
34695 3 3.1175374000186227 14.39928073838247 1.5454229033830698 0 0 0
34694 3 6.235082017099878 14.399278379482203 1.5454313958477601 0 0 0
34693 3 9.35262530871678 14.399273549399492 1.5454425657341082 0 0 0
34692 3 12.470168904825101 14.399259925081552 1.5454537584722638 0 0 0
34691 3 15.587702691561375 14.399258883228049 1.5454578443381652 0 0 0
34690 3 18.70524143747454 14.39926628197518 1.5454523168395955 0 0 0
34689 3 21.822793464998966 14.399287319910034 1.5454563251978426 0 0 0
34688 3 24.94034549774936 14.399314790573365 1.545489103221603 0 0 0
34687 3 28.057832273561736 14.399310545433893 1.5454974962198487 0 0 0
34686 3 31.175382458569302 14.399272343630955 1.5454807024403305 0 0 0
34685 3 1.558760436503384 17.099157348614593 1.5454204250188792 0 0 0
34684 3 4.676306509105912 17.099152985860247 1.5454247031627888 0 0 0
34683 3 7.793850000420384 17.099148176853507 1.5454332482948014 0 0 0
34682 3 10.911392248953039 17.099141293109167 1.545440083142486 0 0 0
34681 3 14.028933377441057 17.099137365517702 1.5454444147195416 0 0 0
34680 3 17.146477587653752 17.09913944545233 1.5454477170221466 0 0 0
34679 3 20.26402993878275 17.099146432075443 1.5454597014496108 0 0 0
34643 3 23.38159558324335 17.099157877722387 1.5455043942819535 0 0 0
34642 3 26.499088566036786 17.09915200611038 1.5453968011617651 0 0 0
34641 3 29.616583774719796 17.09915522479647 1.5455137604404103 0 0 0
29064 2 28.057838986424972 41.39795610306246 4.66326064728443 0 0 0
34632 3 3.117528574878249 19.799028719601296 1.5454293164211295 0 0 0
34604 3 6.23507403827429 19.79902235390621 1.5454328829850363 0 0 0
34603 3 9.352616782349372 19.799016410565134 1.545437375385968 0 0 0
34602 3 12.47015923106375 19.799012398779162 1.545439648352247 0 0 0
34601 3 15.58770332572626 19.79901052493118 1.5454432763590265 0 0 0
34600 3 18.70524948700318 19.79901053696783 1.5454535836340684 0 0 0
34599 3 21.822795204060714 19.799007842701094 1.5454744085400443 0 0 0
34598 3 24.94033963220301 19.798976710360403 1.5455214332698242 0 0 0
34597 3 28.05784473371311 19.79898091720915 1.5455282178238086 0 0 0
34596 3 31.17538987287447 19.799022323326056 1.5455007137304542 0 0 0
34595 3 1.5587484754438024 22.498903672287735 1.545445677734988 0 0 0
34594 3 4.676295618902842 22.498895323591423 1.5454396353966964 0 0 0
34593 3 7.793840337551702 22.49888804942657 1.5454385608803394 0 0 0
34592 3 10.911384045699368 22.49888286922153 1.5454377824583188 0 0 0
34591 3 14.028928451451764 22.4988796362353 1.5454385964495114 0 0 0
34605 3 17.146473439974468 22.498877226676534 1.5454444303472747 0 0 0
34590 3 20.264018866094055 22.49887350439388 1.5454578998611501 0 0 0
34588 3 23.381564769426816 22.4988633890571 1.545479829208566 0 0 0
34587 3 26.499098305824646 22.498868044332763 1.545502160683941 0 0 0
34586 3 29.61662914524884 22.49887712022426 1.545514496809223 0 0 0
34585 3 3.117514881089647 25.198766755279618 1.5454534231329797 0 0 0
34584 3 6.2350619518118835 25.198758607982583 1.5454424193600174 0 0 0
34583 3 9.35260740953617 25.19875223013407 1.5454349664523737 0 0 0
34582 3 12.470153062071782 25.198747813898247 1.5454309632158696 0 0 0
34581 3 15.587698782959606 25.198744937333387 1.5454325806520637 0 0 0
34580 3 18.705244311124698 25.19874261423418 1.5454408145755247 0 0 0
34579 3 21.822790545896293 25.198739545225575 1.545456963321848 0 0 0
34578 3 24.94033458956987 25.198740580214007 1.5454819181472312 0 0 0
34577 3 28.05787964644779 25.19875132517639 1.54551000863666 0 0 0
34576 3 31.175424317743914 25.19875667638906 1.545550729336879 0 0 0
34575 3 1.5587325500548599 27.89863446659976 1.5454709940526288 0 0 0
34589 3 4.6762833448281915 27.898627400321967 1.5454492350908045 0 0 0
34606 3 7.793830594797186 27.89862244696428 1.545434358096285 0 0 0
34607 3 10.911376671647618 27.89861828314576 1.54542375875095 0 0 0
34608 3 14.028923563915956 27.898614788092377 1.545419700981776 0 0 0
34626 3 17.14647027558177 27.898612600835317 1.5454244619380166 0 0 0
34627 3 20.264016377364133 27.898611310248278 1.5454380495267417 0 0 0
34628 3 23.381562392043758 27.898611617933543 1.545461469846718 0 0 0
34629 3 26.499107670043124 27.898614487273633 1.5454951898933043 0 0 0
34630 3 29.616654705132355 27.898634222767505 1.545546310202896 0 0 0
11360 1 29.616607050094427 42.29790980848166 3.1043513901549353 0 0 0
34631 3 3.117503531209895 30.598491543424323 1.545453995293375 0 0 0
34633 3 6.23505603744384 30.598491434510105 1.5454366164159083 0 0 0
34640 3 9.352601460164243 30.598490374476015 1.5454230246470377 0 0 0
34634 3 12.470147363527245 30.598487700330224 1.5454125328852322 0 0 0
34635 3 15.587694981013446 30.5984847144432 1.5454110317528786 0 0 0
34636 3 18.705242068331156 30.598482508489397 1.5454212203974702 0 0 0
34637 3 21.8227877614339 30.598480513071582 1.545441115016842 0 0 0
34638 3 24.940336894375537 30.598477492976624 1.5454699370624025 0 0 0
34639 3 28.057898708547658 30.598477238680342 1.545524646484402 0 0 0
34625 3 31.175394396815484 30.598460118945084 1.5454291228604546 0 0 0
34624 3 1.5587413531534648 33.2983509506461 1.5454486327894605 0 0 0
34623 3 4.676288799306015 33.29835795247108 1.5454366270046187 0 0 0
34622 3 7.793831473094486 33.298361138722974 1.5454275851847354 0 0 0
34621 3 10.911373354572284 33.29836133237125 1.5454158054785982 0 0 0
34620 3 14.02891881772032 33.29835919993683 1.545407055301964 0 0 0
34619 3 17.146466005264788 33.29835620182583 1.5454099486310395 0 0 0
34618 3 20.264010444575888 33.298352576370654 1.545424720934067 0 0 0
34617 3 23.38155171414228 33.29834690900453 1.5454452925267743 0 0 0
34616 3 26.499093124330173 33.29833671214375 1.5454682516717617 0 0 0
34615 3 29.616639298337258 33.29829827988851 1.5455162466958192 0 0 0
34614 3 3.1175226591234115 35.998223784342365 1.545430774338977 0 0 0
34613 3 6.235065665450252 35.9982303267018 1.5454312479200703 0 0 0
34612 3 9.352604101095332 35.998233695343266 1.5454264630172996 0 0 0
34611 3 12.470145056500918 35.998234107746526 1.545415717912074 0 0 0
34610 3 15.587690537258048 35.998232319289805 1.5454107416429046 0 0 0
34609 3 18.70523516329829 35.998228855382564 1.5454184069705992 0 0 0
34676 3 21.822774951955086 35.998223207298516 1.5454329180902968 0 0 0
34711 3 24.940313312114746 35.998214168477396 1.5454464056333574 0 0 0
34712 3 28.057857214547965 35.9981968373061 1.5454613108510873 0 0 0
34713 3 31.17539793206592 35.99819185236723 1.5454819635475965 0 0 0
34801 3 1.5587537416360535 38.698091118138926 1.5454227746401084 0 0 0
34802 3 4.676300697415158 38.69809910080169 1.5454304888456698 0 0 0
34803 3 7.793839226581251 38.69810449019517 1.5454381178847638 0 0 0
34804 3 10.911376056879583 38.698108215294944 1.5454339851371768 0 0 0
34805 3 14.028917368344715 38.69810892338395 1.545425685114783 0 0 0
34806 3 17.14646092184138 38.6981067877889 1.545426339226788 0 0 0
34808 3 20.264000368194896 38.69810202437679 1.5454354193593407 0 0 0
34815 3 23.3815362534225 38.69809438326985 1.5454433437902615 0 0 0
34809 3 26.49907490225981 38.69808325517673 1.5454473898076546 0 0 0
34810 3 29.61661530967205 38.698073606630096 1.5454554975210097 0 0 0
29067 2 18.705223683947064 41.39795436741647 4.663264521880883 0 0 0
34811 3 3.1175332765541977 41.39796703823576 1.5454262997488033 0 0 0
34812 3 6.235076891454558 41.39797351152318 1.5454454872304684 0 0 0
34813 3 9.352612312186023 41.39797963567682 1.5454554926470747 0 0 0
34814 3 12.470149279368714 41.397985274062584 1.5454522644886401 0 0 0
34800 3 15.587688427181083 41.3979849728153 1.54544835973758 0 0 0
34799 3 18.705225768809868 41.39798067078475 1.5454510747338612 0 0 0
34798 3 21.82276013092968 41.39797319729978 1.5454537506607058 0 0 0
34797 3 24.940296718979756 41.397962044027345 1.5454508418922397 0 0 0
34796 3 28.0578361603089 41.39795226013387 1.545446833116369 0 0 0
34795 3 31.175377708779997 41.3979414171553 1.5454492410838712 0 0 0
29282 2 1.5587612781460214 0.8999511247439728 4.663287107223729 0 0 0
29068 2 15.587688934887073 41.39795296506837 4.663261817681437 0 0 0
11129 1 3.1175439306957755 1.7998907298004894 3.104386673641405 0 0 0
29281 2 4.676304384933384 0.8999504886954888 4.66330290998708 0 0 0
11131 1 6.235082916060756 1.7999006312871768 3.104400328432255 0 0 0
29280 2 7.79386173847465 0.8999530226459727 4.663301618672368 0 0 0
11132 1 9.352621979455826 1.7998918817011358 3.1043850230948427 0 0 0
11134 1 12.470166965674672 1.7999016299405932 3.104382680078628 0 0 0
29279 2 10.911396302078687 0.8999563779141249 4.663294462629304 0 0 0
11136 1 15.587705039731098 1.7998999998368117 3.1043912126483613 0 0 0
29278 2 14.028932565300504 0.8999467915628592 4.663295119255316 0 0 0
11137 1 18.705241602777402 1.7998994399814314 3.104386147219453 0 0 0
29277 2 17.146476568449156 0.8999478349390752 4.663299767318324 0 0 0
29276 2 20.264015719276113 0.8999325478082735 4.6632823418597935 0 0 0
11140 1 21.82277898742703 1.7998946206674191 3.1043736940493623 0 0 0
29275 2 23.381548892430647 0.8999361496399326 4.663275949804954 0 0 0
11142 1 24.940319749441137 1.7998950864015517 3.1043736956357884 0 0 0
29274 2 26.499083000329527 0.899939190360071 4.6632846081909705 0 0 0
11144 1 28.05785995773885 1.799890958547599 3.1043849810373128 0 0 0
29273 2 29.61661804525376 0.8999378401307421 4.663302241737877 0 0 0
11145 1 31.1753961126513 1.7998907857084532 3.1044026638658995 0 0 0
11146 1 1.558771383299927 4.499765272309489 3.104369504653891 0 0 0
11356 1 20.263992289386003 42.2979264141096 3.1043668055416545 0 0 0
11147 1 4.676312512032919 4.49976516687494 3.1043768532595584 0 0 0
29272 2 3.117538111467039 3.599814016078121 4.663283580215841 0 0 0
11149 1 7.79385371239258 4.499765420989033 3.1043752025464317 0 0 0
29271 2 6.235083566676791 3.5998230079528954 4.663290935168424 0 0 0
29270 2 9.352623604591539 3.599812133116459 4.663282913907958 0 0 0
11118 1 10.91139520334567 4.499765861299919 3.104377470638524 0 0 0
29269 2 12.470164149683155 3.5998144577518283 4.663287741258523 0 0 0
11102 1 14.028942547994857 4.4997746522860735 3.104391537143211 0 0 0
29268 2 15.587701384975809 3.599809804283599 4.663300737268073 0 0 0
11090 1 17.146465611617774 4.499774556691708 3.104397866604731 0 0 0
29109 2 18.70524343922104 3.599810804553123 4.663295886754279 0 0 0
11092 1 20.26400955418784 4.499767271994202 3.104386046404237 0 0 0
11093 1 23.381548734092085 4.499764005464138 3.10437502709741 0 0 0
29298 2 21.822783105416146 3.599804980125516 4.663284433199967 0 0 0
11095 1 26.499088743112104 4.499762117813355 3.1043790802447395 0 0 0
29108 2 24.940316283212926 3.5998065777639807 4.663282151920542 0 0 0
11097 1 29.616625797636516 4.499761435332101 3.1043933947944846 0 0 0
29042 2 28.057850594237895 3.599803870456259 4.663291907019981 0 0 0
28945 2 31.17538678050723 3.5998062047481056 4.663306319569469 0 0 0
28944 2 1.558765690292114 6.2996845300808895 4.663269698896884 0 0 0
11355 1 17.146456649752498 42.29792776831519 3.1043654613123564 0 0 0
11103 1 3.117540352180988 7.199634488918448 3.1043628237795695 0 0 0
28943 2 4.676309819827531 6.299685654783101 4.663274414948906 0 0 0
11104 1 6.235083034269177 7.1996337552197325 3.104364990706019 0 0 0
28942 2 7.793851409851677 6.299682896863734 4.663276029340193 0 0 0
11105 1 9.3526264951524 7.199633743264346 3.10437256347859 0 0 0
11106 1 12.470164802703762 7.199633093972174 3.104399930733706 0 0 0
28941 2 10.911384469087249 6.2996744798395525 4.663289769172192 0 0 0
11108 1 15.587703253830313 7.19972612978002 3.104434707216793 0 0 0
28940 2 14.028933876485105 6.2996724259445145 4.663304699827242 0 0 0
11110 1 18.70524135194021 7.199634012018096 3.104401281366777 0 0 0
28939 2 17.1464722137823 6.299675882011005 4.663308019950486 0 0 0
28938 2 20.264022490774845 6.299679726099495 4.66329358416299 0 0 0
11113 1 21.822778358457068 7.199634102521054 3.1043707761406747 0 0 0
28937 2 23.381551146113246 6.299681909576054 4.663275627978315 0 0 0
11115 1 24.940318369360654 7.199631642672061 3.104364257278444 0 0 0
28936 2 26.49908074435203 6.299679795080927 4.663280041911454 0 0 0
11150 1 28.057857188003915 7.19963061640398 3.104378896436045 0 0 0
28935 2 29.61661055388636 6.299673625452618 4.663301219911483 0 0 0
11151 1 31.175389200872473 7.1996283583328 3.1044080744688047 0 0 0
11152 1 1.55876774867857 9.899503686719058 3.1043470099786576 0 0 0
11353 1 14.028921141768945 42.297929426047055 3.1043662212119454 0 0 0
11153 1 4.676310978296966 9.899502127080167 3.104351711685698 0 0 0
28934 2 3.1175366625617675 8.999554926495057 4.663260384783435 0 0 0
11188 1 7.793855871924165 9.899500500150987 3.1043589866398245 0 0 0
28933 2 6.235079599706649 8.99955226611037 4.663264442096398 0 0 0
28932 2 9.35262060685505 8.999550059590016 4.663275191424912 0 0 0
11191 1 10.91140424029143 9.899502539256135 3.1043781869195617 0 0 0
28931 2 12.47015516453035 8.999553052527242 4.663297942913703 0 0 0
11192 1 14.029013087557006 9.899452321037675 3.1044267789129627 0 0 0
11194 1 17.146394104678574 9.899452983818009 3.104421084276907 0 0 0
28930 2 18.705253765836083 8.999558090767835 4.663291825548281 0 0 0
11196 1 20.264001700901453 9.899502725051589 3.104366747632187 0 0 0
11197 1 23.381548503099125 9.899501774676393 3.1043501016228703 0 0 0
28929 2 21.82278382625459 8.999554045582999 4.663266011812475 0 0 0
11199 1 26.499088790798393 9.899499285260417 3.1043579082303574 0 0 0
28928 2 24.940314758993367 8.99954921029047 4.663261266747813 0 0 0
11201 1 29.616629912998782 9.899502183945904 3.1043799965600796 0 0 0
28927 2 28.057848587055947 8.999548472937263 4.66327659195691 0 0 0
28926 2 31.175377530687612 8.999550256500834 4.663301367620181 0 0 0
28925 2 1.558762952359506 11.699423828115549 4.663243772422029 0 0 0
11205 1 3.1175369242807256 12.59937139892593 3.104335950302967 0 0 0
28924 2 4.676304503065798 11.699421418212179 4.663249706383033 0 0 0
11207 1 6.235079773609707 12.599369228851481 3.104343868767687 0 0 0
28923 2 7.793845188025247 11.699418309969902 4.66325907065168 0 0 0
11208 1 9.352623131402257 12.59936646399801 3.104356602178694 0 0 0
11210 1 12.470165944636927 12.599354457709206 3.104373461101829 0 0 0
28922 2 10.911385013303994 11.699418128880913 4.663277062417856 0 0 0
11212 1 15.587703133626253 12.599363204986966 3.104386203794337 0 0 0
28921 2 14.028925825157193 11.699416771845222 4.663291818873109 0 0 0
11214 1 18.705240105696692 12.599354412691532 3.1043649531360873 0 0 0
28920 2 17.146484168945648 11.699416249317455 4.663286026831839 0 0 0
28919 2 20.26401812329988 11.699413922192742 4.66326692506472 0 0 0
11216 1 21.822781500348615 12.599366460035991 3.1043541930785783 0 0 0
28918 2 23.381551510432477 11.699410440690446 4.663257522763552 0 0 0
11183 1 24.940325627844516 12.599373083462694 3.1043603357351506 0 0 0
28946 2 26.499079690699052 11.699404903261321 4.6632687649098274 0 0 0
11154 1 28.057846016981664 12.59937196986399 3.1043727237402683 0 0 0
28948 2 29.61660777238107 11.699410503896535 4.6632846041965506 0 0 0
11155 1 31.175386021618877 12.599353459202858 3.1043856978447417 0 0 0
11156 1 1.5587634449073957 15.299241373020234 3.104325828943314 0 0 0
11157 1 4.676305862040228 15.299238969717162 3.1043318751189037 0 0 0
28978 2 3.1175315883758024 14.399287915211325 4.663236372086887 0 0 0
11159 1 7.79384891777647 15.299236063108404 3.104341958816387 0 0 0
28949 2 6.235072323802911 14.399285717975461 4.663244873213078 0 0 0
28977 2 9.352615103674093 14.399284191285469 4.663255896123139 0 0 0
11162 1 10.911393013528324 15.299230644535013 3.10435139767003 0 0 0
28976 2 12.470159116029789 14.399280172152528 4.663266375853919 0 0 0
11163 1 14.028932993961607 15.29922903399022 3.1043587026987933 0 0 0
28975 2 15.587702968905301 14.399287159375321 4.663274194318136 0 0 0
11165 1 17.14647264833068 15.299228523722576 3.1043582974214967 0 0 0
28974 2 18.705241693507578 14.399273297046847 4.663265030359638 0 0 0
11167 1 20.264012550745353 15.299229244771704 3.104361091814687 0 0 0
11168 1 23.381550583328984 15.29923238868509 3.104385941543625 0 0 0
28973 2 21.822773121991375 14.39926718336816 4.663272726954199 0 0 0
11170 1 26.4990854867746 15.299323566434943 3.104419374759896 0 0 0
28972 2 24.94031770105006 14.399261252511476 4.663283536653998 0 0 0
11172 1 29.616620004854656 15.299229540478999 3.1043988131971347 0 0 0
28971 2 28.057845334325854 14.399263408195154 4.663292006819492 0 0 0
28970 2 31.175386058784046 14.399263190468059 4.66329668800362 0 0 0
28969 2 1.558761447251693 17.099151481359613 4.6632338582200905 0 0 0
29065 2 24.94030261759261 41.397955916983996 4.66326463635118 0 0 0
11177 1 3.117532087199673 17.99910936965812 3.104329972363858 0 0 0
28968 2 4.676300052422677 17.09915100742814 4.663238109992387 0 0 0
11179 1 6.2350749747566905 17.999106265803864 3.1043366360060696 0 0 0
28967 2 7.793842617179443 17.09914969811163 4.663246722147076 0 0 0
11180 1 9.352618363241996 17.99910250702161 3.10434376635846 0 0 0
11181 1 12.470160484741404 17.999100019745903 3.104347823745437 0 0 0
28966 2 10.911387172909535 17.09914731991894 4.6632533960737925 0 0 0
11283 1 15.587702544999049 17.999098175457256 3.1043512681029264 0 0 0
28965 2 14.028929115364042 17.09914735823108 4.663257829926193 0 0 0
11546 1 18.705245606877128 17.99909732321829 3.1043593010790977 0 0 0
28964 2 17.146470734106494 17.099143601764116 4.663261122456287 0 0 0
28963 2 20.264007693477947 17.099138446216156 4.663272371206445 0 0 0
11517 1 21.822791942735602 17.99910052005632 3.1043824182189894 0 0 0
28962 2 23.381540374838043 17.099140254189884 4.6632982159210625 0 0 0
11519 1 24.94039984549378 17.999052285518154 3.104437127940021 0 0 0
11521 1 28.057773396670115 17.99905199519233 3.1044396716601943 0 0 0
28961 2 29.616623258155293 17.099139600090634 4.663308013712817 0 0 0
11522 1 31.175376167527503 17.999103779232403 3.104400083639057 0 0 0
11523 1 1.5587580019159075 20.698980632855612 3.1043419377661436 0 0 0
11524 1 4.676300830495773 20.698976880309033 3.1043403451497387 0 0 0
28960 2 3.117529728898267 19.799016530438838 4.6632427061145005 0 0 0
11526 1 7.793844056083774 20.69897358423484 3.1043437270666128 0 0 0
28959 2 6.235070369677136 19.799016445529528 4.663246248670844 0 0 0
28958 2 9.352614102996428 19.7990154898062 4.663250719074222 0 0 0
11528 1 10.91138686689866 20.69897083895493 3.1043457778903223 0 0 0
28957 2 12.47015669971256 19.79901422894933 4.663253152411401 0 0 0
11530 1 14.02892916482329 20.698968552976375 3.104347697587971 0 0 0
28956 2 15.58769701383201 19.799012095953795 4.663256890875026 0 0 0
11532 1 17.14647101254049 20.69896681417321 3.1043541635890124 0 0 0
28955 2 18.705234456877815 19.79900958212452 4.663267113089442 0 0 0
11534 1 20.264012550626727 20.698965123255125 3.104369779690708 0 0 0
11535 1 23.381552822376563 20.698954785617023 3.104395359487138 0 0 0
28954 2 21.822769453437004 19.79900940009336 4.663290586315801 0 0 0
11537 1 26.499087381787724 20.698965719383256 3.1044222864265514 0 0 0
28953 2 24.940304934094293 19.79900744049648 4.663315096039737 0 0 0
11539 1 29.616619553995246 20.698956985422768 3.1044162642047324 0 0 0
28952 2 28.05785867385393 19.79900236809597 4.663322339900774 0 0 0
28951 2 31.175391712673246 19.799004502066154 4.663316216344763 0 0 0
28950 2 1.5587600371536035 22.4988849567854 4.6632590491614625 0 0 0
11544 1 3.11752633269715 23.398847605163443 3.1043528150757393 0 0 0
28917 2 4.676300047784945 22.498884852473157 4.6632530786972675 0 0 0
11545 1 6.235069780790155 23.39884429045192 3.1043476278191267 0 0 0
28916 2 7.793842399636422 22.498885799881457 4.663251884339241 0 0 0
11514 1 9.352613098014018 23.39884154871621 3.1043447649821703 0 0 0
11483 1 12.470155918611974 23.3988391505388 3.1043433159672156 0 0 0
28915 2 10.911384865605093 22.49888550896091 4.66325111439868 0 0 0
11485 1 15.587698145025401 23.398837127180983 3.104345954439537 0 0 0
28914 2 14.028925581266316 22.498884078188247 4.663252047362509 0 0 0
11487 1 18.705239946684976 23.398835187710162 3.104354779031578 0 0 0
28881 2 17.146464590260805 22.498882647333826 4.663257969245794 0 0 0
28880 2 20.264002040558516 22.49888202777264 4.663271403124709 0 0 0
11490 1 21.82278205749237 23.398831196641847 3.1043711043244104 0 0 0
28879 2 23.381539344247653 22.498877697974464 4.663292802363476 0 0 0
11492 1 24.940319547213388 23.398831471158665 3.104395176829642 0 0 0
28878 2 26.49907858546796 22.498884508002735 4.6633185146317 0 0 0
11493 1 28.05785655461129 23.398834715010196 3.1044160155991904 0 0 0
28877 2 29.616611671832906 22.49886620925651 4.663330063193858 0 0 0
11494 1 31.175384912286415 23.398832746493063 3.104438170460927 0 0 0
11495 1 1.5587510304876666 26.098718244175444 3.1043727951205753 0 0 0
11359 1 26.49906896145213 42.29791477298549 3.1043561460764684 0 0 0
11496 1 4.676295170639047 26.098714494099436 3.104355791129945 0 0 0
28876 2 3.117530579705685 25.198754553851646 4.6632667299152954 0 0 0
11498 1 7.793839191535652 26.09871188265684 3.1043444459788376 0 0 0
28875 2 6.235072252041235 25.19875652943843 4.663255784421062 0 0 0
28874 2 9.352614320941347 25.198757459929013 4.663248302866739 0 0 0
11501 1 10.911382592292185 26.098709561638668 3.104336634933321 0 0 0
28873 2 12.47015477123442 25.198757035996685 4.663244300008906 0 0 0
11503 1 14.028925277859297 26.09870745842166 3.1043344031507316 0 0 0
28872 2 15.587693772243231 25.198755672110792 4.663246024353724 0 0 0
11505 1 17.146467379853945 26.098705443435186 3.1043392503161176 0 0 0
28871 2 18.705231910515362 25.198753696949012 4.663254435937544 0 0 0
11507 1 20.264009215490386 26.09870288932667 3.1043514840625357 0 0 0
11508 1 23.381549652834 26.09870185382206 3.104372803984554 0 0 0
28870 2 21.822769183035803 25.198750189963626 4.663270578419256 0 0 0
11510 1 26.499090484785803 26.098702151566044 3.1044024074446455 0 0 0
28869 2 24.940305675824785 25.19874867214772 4.663295401772727 0 0 0
11511 1 29.616637557062703 26.098710698284208 3.1044336356788453 0 0 0
28882 2 28.057849646205717 25.19874814632418 4.66332207579317 0 0 0
28868 2 31.17537934096721 25.198743256849646 4.663347649794201 0 0 0
28866 2 1.5587641869597804 27.89862547105864 4.663287073844982 0 0 0
11548 1 3.1175198151156325 28.79858342586023 3.104365652448379 0 0 0
28865 2 4.676301678440646 27.898628050406096 4.663262487635556 0 0 0
11583 1 6.2350650336747435 28.79858141685965 3.1043469289366765 0 0 0
28864 2 7.793843591760354 27.898627698920073 4.663247781564408 0 0 0
11584 1 9.352609135321615 28.798579523832345 3.104333249860107 0 0 0
11586 1 12.470152304367334 28.798577589457103 3.1043242423457853 0 0 0
28863 2 10.911384803944026 27.898627235234837 4.663237111103333 0 0 0
11588 1 15.587694619456878 28.798575631257506 3.1043240309345075 0 0 0
28862 2 14.028923342614227 27.898626389687912 4.663233090568073 0 0 0
11590 1 18.705236327059975 28.798573490403275 3.104333881419496 0 0 0
28861 2 17.146460532631004 27.898624369172353 4.663237966778718 0 0 0
28860 2 20.26399737074616 27.898620937947467 4.663251768931053 0 0 0
11592 1 21.822777241436174 28.798571735858662 3.104353120163911 0 0 0
28859 2 23.38153285212157 27.898618357936716 4.663275283450252 0 0 0
11594 1 24.940318053402194 28.798570510113024 3.1043830047868153 0 0 0
28858 2 26.499066345604366 27.898613336095057 4.663311517774425 0 0 0
11596 1 28.05785390198684 28.79856814461353 3.104426946685257 0 0 0
28857 2 29.616612159543436 27.898608986371354 4.663343381427833 0 0 0
11597 1 31.175387549295753 28.798646833342584 3.1044750432658477 0 0 0
11598 1 1.558740187962126 31.498452503115626 3.1043688515839554 0 0 0
11599 1 4.676289742316746 31.498449262924957 3.104348502448394 0 0 0
28856 2 3.1175256901004063 30.598501045413485 4.663266490037421 0 0 0
11601 1 7.793835592670349 31.498448737615412 3.104335603307236 0 0 0
28855 2 6.2350695141911165 30.5984971515364 4.663249882619481 0 0 0
28854 2 9.352613713463924 30.598494835665527 4.66323638507435 0 0 0
11604 1 10.9113794646969 31.498447416724094 3.104322732364304 0 0 0
28867 2 12.470154139904137 30.598493601255424 4.663225908503055 0 0 0
11606 1 14.028922027279172 31.4984457010831 3.104315073769297 0 0 0
28883 2 15.587690743882673 30.59849250574435 4.663224476719984 0 0 0
11608 1 17.14646374014867 31.498443758825175 3.104319171160029 0 0 0
28884 2 18.70522665973633 30.598490394786758 4.663234766771542 0 0 0
11610 1 20.26400509746788 31.498441634786396 3.1043350385304445 0 0 0
11581 1 23.38154729392703 31.498439089586284 3.104358410181668 0 0 0
28885 2 21.82276429413629 30.598488436533476 4.663254735284969 0 0 0
11580 1 26.499092922533254 31.498439504727287 3.1043900299364413 0 0 0
28913 2 24.940303724101234 30.59848914517588 4.663282821052906 0 0 0
11578 1 29.616699300305633 31.49838680572695 3.104449813909701 0 0 0
28912 2 28.057836846737533 30.59849290591384 4.663318601868733 0 0 0
28911 2 1.5587591174621915 33.298369989721415 4.663264528274518 0 0 0
11553 1 3.117521075567042 34.19831609046152 3.1043446362134675 0 0 0
28910 2 4.676296653013693 33.29836590084563 4.663249913181242 0 0 0
11555 1 6.235064625831178 34.198317258474276 3.104338624568838 0 0 0
28909 2 7.793840743384607 33.2983622745359 4.663241050647963 0 0 0
11556 1 9.352607770239581 34.198316989211456 3.1043298618057986 0 0 0
11558 1 12.470150039783602 34.19831583831523 3.1043180575188694 0 0 0
28908 2 10.911384374470126 33.29835960260036 4.6632292101413855 0 0 0
11560 1 15.587691308034687 34.198314194237554 3.1043137051873795 0 0 0
28907 2 14.02892248617832 33.298358186211054 4.663220506607012 0 0 0
11561 1 18.70523175054865 34.19831221695526 3.1043228296343015 0 0 0
28906 2 17.14645706702486 33.298357143892844 4.663223498672369 0 0 0
28905 2 20.263992991611904 33.29835623458499 4.663238434667267 0 0 0
11564 1 21.822771649831814 34.19830964326443 3.1043404716992162 0 0 0
28904 2 23.3815313983152 33.298356333295686 4.663258895188762 0 0 0
11566 1 24.940311570591 34.198305726073954 3.104359700358184 0 0 0
28903 2 26.499067899406796 33.29835820183447 4.663284492966071 0 0 0
11568 1 28.057850783485343 34.19829186544357 3.104382367874909 0 0 0
28902 2 29.616599234424744 33.29835536835959 4.663310127257861 0 0 0
11569 1 31.175383878576696 34.19829921414277 3.104413424607907 0 0 0