LAMMPS data file via write_data, version 2 Aug 2023, timestep = 518, units = metal

47600 atoms
3 atom types

0 1558.7705812038025 xlo xhi
0 86.39582556130854 ylo yhi
0 50 zlo zhi
0 0 0 xy xz yz

Masses

1 95.94
2 32.065
3 32.065

Atoms # atomic

1 3 1.5586705842490014 0.899931402167012 1.546610709958229 0 0 0
2 3 4.676094698922023 0.8999608276198798 1.546224336722275 0 0 0
3 3 7.79358817738774 0.899945108710091 1.5459241534700428 0 0 0
4 3 10.911235561504993 0.8999695467201203 1.5455452063348545 0 0 0
5 3 14.02888756133405 0.8999701677844675 1.5453908062887307 0 0 0
6 3 17.1464990485208 0.8999592380331682 1.5453936855489228 0 0 0
7 3 20.264032427928164 0.8999543335676558 1.5454356006534133 0 0 0
8 3 23.381559778453347 0.8999565262429162 1.5454420566428133 0 0 0
9 3 26.499099236531457 0.89995659581348 1.5454396402984283 0 0 0
10 3 29.616640293741895 0.8999565594265967 1.5454394709617956 0 0 0
11 3 32.73418138556538 0.8999565765628996 1.545439511104297 0 0 0
12 3 35.85172254034408 0.8999565776090058 1.5454395115619626 0 0 0
13 3 38.96926370239018 0.8999565776490367 1.545439511520007 0 0 0
14 3 42.08680486478078 0.8999565776522376 1.5454395115219415 0 0 0
15 3 3.117371454423788 3.5998225126096925 1.5464381431605523 0 0 0
16 3 6.234833167949638 3.5998173712163304 1.5460128094017358 0 0 0
17 3 9.352387135420297 3.599845058409919 1.5457191631105198 0 0 0
18 3 12.470057961935039 3.5998385093528045 1.5454480469380503 0 0 0
19 3 15.587705458772819 3.5998343445074332 1.5453764120327418 0 0 0
20 3 18.70527082993795 3.5998242828202263 1.5454182615600511 0 0 0
21 3 21.822793821061968 3.599825116548963 1.5454419813676867 0 0 0
22 3 24.940328781866437 3.599826240754766 1.5454405411645382 0 0 0
23 3 28.057869761419227 3.5998261000073386 1.5454394434913832 0 0 0
24 3 31.175410824515893 3.599826120736819 1.5454395029160812 0 0 0
25 3 34.29295196059444 3.5998261262582147 1.5454395117131188 0 0 0
26 3 37.41049312125868 3.5998261264300857 1.5454395115181712 0 0 0
27 3 40.52803428358037 3.5998261264426454 1.5454395115216342 0 0 0
28 3 1.5586705842489872 6.299670499748807 1.546610709958233 0 0 0
29 3 4.676094698922035 6.299699925201718 1.5462243367222555 0 0 0
30 3 7.793588177387711 6.299684206291906 1.5459241534700436 0 0 0
31 3 10.911235561504999 6.299708644302006 1.5455452063348116 0 0 0
32 3 14.028887561334056 6.299709265366316 1.5453908062887272 0 0 0
33 3 17.1464990485208 6.299698335615042 1.545393685548901 0 0 0
34 3 20.264032427928143 6.299693431149517 1.5454356006534253 0 0 0
35 3 23.381559778453383 6.299695623824814 1.545442056642806 0 0 0
36 3 26.499099236531467 6.299695693395338 1.5454396402984145 0 0 0
37 3 29.616640293741927 6.2996956570084555 1.5454394709618169 0 0 0
38 3 32.7341813855654 6.2996956741447505 1.5454395111043289 0 0 0
39 3 35.851722540344056 6.2996956751908915 1.5454395115619681 0 0 0
40 3 38.96926370239018 6.299695675230882 1.5454395115200261 0 0 0
41 3 42.08680486478078 6.2996956752340685 1.5454395115219708 0 0 0
42 3 3.117371454423782 8.999561610191483 1.5464381431605396 0 0 0
43 3 6.234833167949633 8.999556468798136 1.5460128094017347 0 0 0
44 3 9.352387135420297 8.99958415599174 1.545719163110524 0 0 0
45 3 12.470057961935039 8.999577606934617 1.5454480469380563 0 0 0
46 3 15.587705458772847 8.999573442089254 1.5453764120327487 0 0 0
47 3 18.705270829937945 8.999563380402037 1.5454182615600407 0 0 0
48 3 21.822793821061968 8.999564214130768 1.5454419813676763 0 0 0
49 3 24.940328781866427 8.999565338336573 1.5454405411645349 0 0 0
50 3 28.057869761419262 8.999565197589163 1.5454394434913918 0 0 0
51 3 31.175410824515907 8.999565218318601 1.5454395029160972 0 0 0
52 3 34.29295196059444 8.999565223840005 1.5454395117131066 0 0 0
53 3 37.41049312125868 8.999565224011846 1.5454395115181574 0 0 0
54 3 40.52803428358037 8.999565224024442 1.545439511521644 0 0 0
55 3 1.5586705842489808 11.699409597330575 1.5466107099581787 0 0 0
56 3 4.67609469892203 11.69943902278353 1.5462243367222395 0 0 0
57 3 7.793588177387709 11.699423303873713 1.5459241534700452 0 0 0
58 3 10.911235561504983 11.699447741883835 1.545545206334816 0 0 0
59 3 14.02888756133405 11.699448362948127 1.5453908062887132 0 0 0
60 3 17.1464990485208 11.699437433196854 1.5453936855489059 0 0 0
61 3 20.264032427928143 11.699432528731311 1.5454356006534244 0 0 0
62 3 23.381559778453358 11.699434721406583 1.5454420566427973 0 0 0
63 3 26.499099236531457 11.699434790977145 1.5454396402984245 0 0 0
64 3 29.616640293741895 11.699434754590248 1.5454394709618058 0 0 0
65 3 32.73418138556538 11.699434771726551 1.5454395111043302 0 0 0
66 3 35.851722540344056 11.699434772772664 1.5454395115619637 0 0 0
67 3 38.96926370239016 11.699434772812676 1.5454395115200297 0 0 0
68 3 42.08680486478078 11.699434772815856 1.545439511521947 0 0 0
69 3 3.1173714544237754 14.399300707773264 1.5464381431605407 0 0 0
70 3 6.234833167949622 14.399295566379946 1.546012809401724 0 0 0
71 3 9.352387135420292 14.399323253573534 1.5457191631105074 0 0 0
72 3 12.470057961935039 14.399316704516428 1.5454480469380572 0 0 0
73 3 15.587705458772852 14.399312539671032 1.5453764120327196 0 0 0
74 3 18.70527082993795 14.399302477983822 1.5454182615600518 0 0 0
75 3 21.82279382106198 14.399303311712563 1.5454419813676743 0 0 0
76 3 24.940328781866437 14.399304435918356 1.5454405411645409 0 0 0
77 3 28.057869761419227 14.399304295170971 1.5454394434913903 0 0 0
78 3 31.175410824515893 14.399304315900412 1.545439502916089 0 0 0
79 3 34.2929519605944 14.399304321421802 1.54543951171312 0 0 0
80 3 37.41049312125866 14.399304321593668 1.5454395115181616 0 0 0
81 3 40.52803428358037 14.399304321606229 1.5454395115216446 0 0 0
82 3 1.5586705842489836 17.099148694912365 1.5466107099582407 0 0 0
83 3 4.676094698922021 17.099178120365295 1.5462243367222475 0 0 0
84 3 7.793588177387709 17.099162401455477 1.5459241534700483 0 0 0
85 3 10.91123556150497 17.09918683946559 1.5455452063348076 0 0 0
86 3 14.02888756133404 17.099187460529887 1.5453908062887283 0 0 0
87 3 17.14649904852082 17.099176530778614 1.5453936855488966 0 0 0
88 3 20.264032427928164 17.09917162631308 1.545435600653423 0 0 0
89 3 23.381559778453397 17.0991738189884 1.5454420566427993 0 0 0
90 3 26.499099236531467 17.099173888558955 1.5454396402984156 0 0 0
91 3 29.616640293741895 17.09917385217203 1.5454394709618091 0 0 0
92 3 32.734181385565336 17.099173869308334 1.5454395111043218 0 0 0
93 3 35.851722540344035 17.099173870354434 1.545439511561975 0 0 0
94 3 38.96926370239016 17.099173870394495 1.5454395115200212 0 0 0
95 3 42.08680486478078 17.099173870397635 1.5454395115219706 0 0 0
96 3 3.117371454423772 19.799039805355047 1.5464381431605223 0 0 0
97 3 6.234833167949638 19.799034663961685 1.5460128094017196 0 0 0
98 3 9.352387135420297 19.799062351155293 1.5457191631105152 0 0 0
99 3 12.470057961935028 19.799055802098163 1.5454480469380572 0 0 0
100 3 15.587705458772819 19.799051637252813 1.5453764120327467 0 0 0
101 3 18.70527082993795 19.799041575565635 1.5454182615600378 0 0 0
102 3 21.82279382106198 19.799042409294316 1.5454419813676719 0 0 0
103 3 24.940328781866427 19.799043533500154 1.5454405411645287 0 0 0
104 3 28.057869761419227 19.79904339275272 1.5454394434913965 0 0 0
105 3 31.175410824515893 19.799043413482195 1.5454395029161043 0 0 0
106 3 34.2929519605944 19.799043419003564 1.5454395117131172 0 0 0
107 3 37.41049312125866 19.799043419175415 1.5454395115181618 0 0 0
108 3 40.52803428358037 19.799043419188013 1.545439511521626 0 0 0
109 3 1.5586705842489916 22.4988877924941 1.5466107099581925 0 0 0
110 3 4.676094698922018 22.49891721794704 1.5462243367222712 0 0 0
111 3 7.793588177387703 22.498901499037245 1.5459241534700388 0 0 0
112 3 10.911235561505 22.49892593704737 1.5455452063348156 0 0 0
113 3 14.02888756133405 22.498926558111673 1.545390806288707 0 0 0
114 3 17.1464990485208 22.4989156283604 1.5453936855488994 0 0 0
115 3 20.264032427928154 22.498910723894866 1.5454356006534178 0 0 0
116 3 23.381559778453386 22.498912916570134 1.545442056642798 0 0 0
117 3 26.499099236531467 22.4989129861407 1.5454396402984156 0 0 0
118 3 29.616640293741895 22.498912949753787 1.545439470961798 0 0 0
119 3 32.734181385565336 22.498912966890096 1.545439511104318 0 0 0
120 3 35.851722540344035 22.498912967936235 1.5454395115619615 0 0 0
121 3 38.96926370239013 22.498912967976242 1.5454395115200248 0 0 0
122 3 42.08680486478078 22.4989129679794 1.5454395115219575 0 0 0
123 3 3.117371454423786 25.198778902936805 1.5464381431605125 0 0 0
124 3 6.234833167949614 25.19877376154346 1.5460128094017218 0 0 0
125 3 9.352387135420303 25.198801448737036 1.5457191631105178 0 0 0
126 3 12.470057961935039 25.198794899679946 1.5454480469380527 0 0 0
127 3 15.587705458772836 25.198790734834528 1.545376412032743 0 0 0
128 3 18.70527082993795 25.198780673147404 1.5454182615600571 0 0 0
129 3 21.82279382106198 25.198781506876088 1.5454419813676763 0 0 0
130 3 24.940328781866477 25.19878263108193 1.5454405411645238 0 0 0
131 3 28.05786976141923 25.19878249033452 1.5454394434913887 0 0 0
132 3 31.175410824515893 25.19878251106399 1.5454395029160994 0 0 0
133 3 34.29295196059442 25.198782516585332 1.545439511713147 0 0 0
134 3 37.41049312125866 25.19878251675717 1.5454395115181316 0 0 0
135 3 40.528034283580276 25.19878251676978 1.545439511521645 0 0 0
136 3 1.5586705842490254 27.89862689007582 1.5466107099582012 0 0 0
137 3 4.676094698922022 27.898656315528825 1.5462243367222581 0 0 0
138 3 7.793588177387709 27.898640596619 1.5459241534700523 0 0 0
139 3 10.911235561504999 27.898665034629136 1.5455452063348063 0 0 0
140 3 14.028887561334056 27.898665655693453 1.5453908062887136 0 0 0
141 3 17.14649904852082 27.898654725942198 1.5453936855488932 0 0 0
142 3 20.264032427928175 27.898649821476628 1.5454356006534404 0 0 0
143 3 23.381559778453404 27.898652014151896 1.5454420566428126 0 0 0
144 3 26.4990992365315 27.898652083722503 1.5454396402984223 0 0 0
145 3 29.616640293741927 27.898652047335574 1.5454394709618138 0 0 0
146 3 32.73418138556538 27.898652064471836 1.5454395111043149 0 0 0
147 3 35.851722540344056 27.898652065517997 1.5454395115619548 0 0 0
148 3 38.96926370239018 27.89865206555801 1.5454395115200186 0 0 0
149 3 42.08680486478078 27.898652065561222 1.5454395115219695 0 0 0
150 3 3.1173714544238584 30.598518000518613 1.5464381431605845 0 0 0
151 3 6.234833167949618 30.598512859125215 1.5460128094017274 0 0 0
152 3 9.352387135420292 30.598540546318826 1.5457191631105187 0 0 0
153 3 12.470057961935039 30.598533997261725 1.545448046938046 0 0 0
154 3 15.587705458772836 30.598529832416325 1.5453764120327473 0 0 0
155 3 18.70527082993795 30.598519770729126 1.5454182615600434 0 0 0
156 3 21.82279382106198 30.598520604457857 1.545441981367687 0 0 0
157 3 24.940328781866477 30.59852172866371 1.5454405411645364 0 0 0
158 3 28.05786976141916 30.598521587916256 1.5454394434913847 0 0 0
159 3 31.175410824515907 30.598521608645722 1.5454395029160972 0 0 0
160 3 34.29295196059442 30.598521614167115 1.5454395117131137 0 0 0
161 3 37.41049312125864 30.598521614338967 1.5454395115181478 0 0 0
162 3 40.528034283580325 30.598521614351498 1.5454395115216557 0 0 0
163 3 1.5586705842490254 33.29836598765757 1.5466107099582151 0 0 0
164 3 4.676094698922013 33.29839541311057 1.5462243367222506 0 0 0
165 3 7.793588177387711 33.29837969420078 1.5459241534700363 0 0 0
166 3 10.911235561504993 33.298404132210905 1.5455452063348147 0 0 0
167 3 14.02888756133405 33.298404753275214 1.545390806288724 0 0 0
168 3 17.1464990485208 33.298393823523874 1.545393685548902 0 0 0
169 3 20.264032427928207 33.298388919058404 1.545435600653419 0 0 0
170 3 23.381559778453358 33.298391111733665 1.5454420566428095 0 0 0
171 3 26.499099236531457 33.298391181304254 1.5454396402984227 0 0 0
172 3 29.61664029374195 33.298391144917346 1.5454394709618182 0 0 0
173 3 32.73418138556536 33.29839116205363 1.5454395111043275 0 0 0
174 3 35.851722540344056 33.29839116309976 1.5454395115619666 0 0 0
175 3 38.96926370239016 33.2983911631398 1.5454395115200388 0 0 0
176 3 42.08680486478078 33.29839116314296 1.5454395115219646 0 0 0
177 3 3.117371454423786 35.99825709810033 1.54643814316055 0 0 0
178 3 6.23483316794962 35.998251956706994 1.546012809401724 0 0 0
179 3 9.352387135420303 35.998279643900595 1.5457191631105383 0 0 0
180 3 12.470057961935023 35.99827309484351 1.5454480469380796 0 0 0
181 3 15.587705458772868 35.99826892999811 1.5453764120327622 0 0 0
182 3 18.705270829937962 35.99825886831088 1.5454182615600618 0 0 0
183 3 21.82279382106198 35.998259702039576 1.5454419813676799 0 0 0
184 3 24.940328781866437 35.9982608262455 1.5454405411645298 0 0 0
185 3 28.057869761419227 35.99826068549803 1.5454394434913596 0 0 0
186 3 31.175410824515893 35.99826070622749 1.5454395029160861 0 0 0
187 3 34.29295196059442 35.998260711748884 1.545439511713125 0 0 0
188 3 37.41049312125866 35.99826071192074 1.5454395115181332 0 0 0
189 3 40.528034283580325 35.99826071193332 1.5454395115216157 0 0 0
190 3 1.558670584249039 38.698105085239305 1.5466107099581716 0 0 0
191 3 4.676094698922032 38.69813451069232 1.5462243367222483 0 0 0
192 3 7.793588177387706 38.69811879178252 1.5459241534700428 0 0 0
193 3 10.911235561504999 38.698143229792734 1.5455452063348092 0 0 0
194 3 14.02888756133405 38.69814385085697 1.5453908062887085 0 0 0
195 3 17.14649904852082 38.698132921105675 1.545393685548911 0 0 0
196 3 20.264032427928154 38.698128016640126 1.5454356006534118 0 0 0
197 3 23.381559778453397 38.69813020931546 1.545442056642794 0 0 0
198 3 26.499099236531478 38.69813027888602 1.5454396402984245 0 0 0
199 3 29.616640293741884 38.69813024249911 1.5454394709618227 0 0 0
200 3 32.73418138556538 38.6981302596354 1.545439511104335 0 0 0
201 3 35.85172254034401 38.69813026068149 1.5454395115619641 0 0 0
202 3 38.96926370239016 38.6981302607215 1.5454395115200281 0 0 0
203 3 42.08680486478078 38.698130260724696 1.5454395115219346 0 0 0
204 3 3.117371454423843 41.39799619568207 1.5464381431605831 0 0 0
205 3 6.234833167949622 41.397991054288774 1.5460128094017134 0 0 0
206 3 9.35238713542028 41.39801874148234 1.5457191631105052 0 0 0
207 3 12.470057961935051 41.39801219242524 1.5454480469380416 0 0 0
208 3 15.587705458772858 41.398008027579834 1.545376412032739 0 0 0
209 3 18.70527082993795 41.39799796589271 1.5454182615600545 0 0 0
210 3 21.822793821062035 41.39799879962141 1.5454419813676736 0 0 0
211 3 24.940328781866405 41.39799992382724 1.545440541164509 0 0 0
212 3 28.05786976141923 41.39799978307986 1.5454394434913798 0 0 0
213 3 31.175410824515893 41.397999803809185 1.5454395029160923 0 0 0
214 3 34.29295196059442 41.39799980933065 1.5454395117131046 0 0 0
215 3 37.41049312125868 41.39799980950247 1.5454395115181307 0 0 0
216 3 40.528034283580276 41.39799980951503 1.5454395115216375 0 0 0
219 1 3.1175556295615836 1.7999174761084769 3.1054138743326174 0 0 0
220 2 7.7940110081929985 0.8999585400575341 4.663682592957829 0 0 0
221 1 6.234982559036739 1.7999525575911568 3.1050192839924198 0 0 0
222 1 9.352584603683448 1.799907969336252 3.1046123136683517 0 0 0
223 2 10.91149454606299 0.8999540519468789 4.663373497571517 0 0 0
224 1 12.470142948964252 1.7999148945831116 3.1043425737178714 0 0 0
225 2 14.028965482044676 0.8999513683513015 4.6632031632791575 0 0 0
226 1 15.587703832105278 1.7999136252692547 3.104282788604799 0 0 0
227 2 17.14646102784485 0.8999584981560947 4.663207367023823 0 0 0
228 1 18.705252009591963 1.7999140821780006 3.1043265697377724 0 0 0
229 2 20.26401170056021 0.8999588967745763 4.663250304885669 0 0 0
230 2 23.381560602839283 0.8999561444494875 4.663256686483682 0 0 0
231 1 21.82279116888344 1.7999133685479058 3.1043496408434694 0 0 0
232 2 26.49909992879506 0.8999564297268947 4.663254036104996 0 0 0
233 1 24.940329718086424 1.799913131789436 3.104347806453243 0 0 0
234 2 29.616640283420395 0.8999565753886242 4.663253792862448 0 0 0
235 1 28.05786986955041 1.799913019651392 3.104346604288673 0 0 0
236 1 31.175410824165652 1.7999129951351442 3.104346659034611 0 0 0
237 2 32.73418138277055 0.8999565767514401 4.663253822307182 0 0 0
238 1 34.29295196094517 1.7999129926728867 3.1043466670465705 0 0 0
239 2 35.85172254040348 0.8999565775684147 4.66325382189659 0 0 0
240 1 37.41049312128891 1.7999129925268906 3.104346666667826 0 0 0
241 2 38.96926370239136 0.8999565776498955 4.66325382181085 0 0 0
242 1 40.52803428358117 1.799912992521856 3.104346666666433 0 0 0
243 2 42.08680486478078 0.8999565776522389 4.663253821811382 0 0 0
244 1 1.5587898109193037 4.4997696771389535 3.1055818479110937 0 0 0
245 1 4.676302581912545 4.499800311623262 3.1052068625951876 0 0 0
247 1 7.793733192616483 4.4997405731181335 3.1048280943658706 0 0 0
249 2 9.352757001555688 3.599822631605476 4.663520012740558 0 0 0
250 1 10.911358108499345 4.499786863115252 3.104451106867592 0 0 0
251 2 12.470232602616822 3.599827770456128 4.663262883987111 0 0 0
252 1 14.028924953118414 4.499783881562597 3.104288453385812 0 0 0
253 2 15.587703481336078 3.599824480054259 4.6631886634212965 0 0 0
254 1 17.14647954763567 4.499783782013453 3.104301609659813 0 0 0
255 2 18.705232980121924 3.5998299745725277 4.663232605886687 0 0 0
256 1 20.26402195114789 4.4997832056079305 3.104343335922859 0 0 0
257 1 23.381560127972627 4.499782765692379 3.1043494370371048 0 0 0
258 2 21.82278811194277 3.5998265796811433 4.663256744608029 0 0 0
259 1 26.499099587327485 4.499782607520319 3.1043468340457414 0 0 0
260 2 24.94033034696986 3.59982574889499 4.66325500821105 0 0 0
261 1 29.61664029520426 4.499782550411818 3.104346627476579 0 0 0
262 2 28.057869892191274 3.599826099825951 4.663253781495041 0 0 0
263 2 31.175410812534075 3.599826125466987 4.663253816327931 0 0 0
264 1 32.73418138553284 4.499782542012043 3.1043466668165434 0 0 0
265 2 34.29295196040825 3.599826126097042 4.6632538222302875 0 0 0
266 1 35.85172254051612 4.499782541344296 3.1043466667330546 0 0 0
267 2 37.41049312127218 3.599826126427631 4.663253821818709 0 0 0
268 1 38.96926370239987 4.499782541313375 3.104346666665492 0 0 0
269 2 40.528034283580325 3.5998261264427627 4.663253821811394 0 0 0
270 1 42.086804864781186 4.499782541312703 3.1043466666666633 0 0 0
273 1 3.117555629561581 7.19965657369029 3.1054138743326054 0 0 0
274 2 7.794011008192985 6.299697637639343 4.663682592957832 0 0 0
275 1 6.234982559036727 7.199691655172984 3.1050192839924233 0 0 0
276 1 9.352584603683425 7.199647066918069 3.1046123136683432 0 0 0
277 2 10.911494546062967 6.299693149528774 4.66337349757154 0 0 0
278 1 12.470142948964282 7.199653992164937 3.104342573717882 0 0 0
279 2 14.028965482044676 6.299690465933133 4.663203163279159 0 0 0
280 1 15.587703832105273 7.199652722851079 3.104282788604819 0 0 0
281 2 17.146461027844857 6.299697595737971 4.6632073670238645 0 0 0
282 1 18.70525200959193 7.199653179759849 3.1043265697377773 0 0 0
283 2 20.26401170056021 6.299697994356418 4.663250304885649 0 0 0
284 2 23.381560602839293 6.29969524203137 4.663256686483708 0 0 0
285 1 21.822791168883473 7.199652466129754 3.1043496408434716 0 0 0
286 2 26.49909992879506 6.299695527308796 4.663254036105 0 0 0
287 1 24.94032971808647 7.199652229371288 3.104347806453248 0 0 0
288 2 29.616640283420384 6.299695672970498 4.663253792862447 0 0 0
289 1 28.05786986955041 7.19965211723324 3.1043466042886654 0 0 0
290 1 31.175410824165635 7.199652092716967 3.1043466590346336 0 0 0
291 2 32.73418138277055 6.299695674333281 4.663253822307177 0 0 0
292 1 34.29295196094521 7.199652090254735 3.104346667046579 0 0 0
293 2 35.851722540403436 6.2996956751502875 4.66325382189658 0 0 0
294 1 37.41049312128891 7.199652090108707 3.10434666666783 0 0 0
295 2 38.96926370239136 6.299695675231743 4.663253821810832 0 0 0
296 1 40.52803428358117 7.199652090103665 3.1043466666664354 0 0 0
297 2 42.08680486478078 6.299695675234073 4.663253821811356 0 0 0
298 1 1.5587898109193 9.899508774720738 3.105581847911077 0 0 0
299 1 4.676302581912536 9.89953940920508 3.1052068625951756 0 0 0
301 1 7.79373319261646 9.899479670699934 3.10482809436587 0 0 0
303 2 9.35275700155566 8.999561729187292 4.663520012740555 0 0 0
304 1 10.911358108499323 9.89952596069707 3.1044511068675864 0 0 0
305 2 12.470232602616822 8.999566868037975 4.6632628839871115 0 0 0
306 1 14.028924953118425 9.899522979144388 3.104288453385796 0 0 0
307 2 15.587703481336078 8.999563577636096 4.6631886634212965 0 0 0
308 1 17.146479547635717 9.899522879595251 3.1043016096598173 0 0 0
309 2 18.70523298012194 8.999569072154328 4.663232605886695 0 0 0
310 1 20.264021951147956 9.899522303189727 3.104343335922848 0 0 0
311 1 23.381560127972637 9.89952186327421 3.1043494370370994 0 0 0
312 2 21.822788111942792 8.999565677262986 4.663256744608011 0 0 0
313 1 26.49909958732753 9.899521705102106 3.1043468340457414 0 0 0
314 2 24.940330346969905 8.99956484647682 4.663255008211071 0 0 0
315 1 29.61664029520427 9.899521647993621 3.1043466274765903 0 0 0
316 2 28.057869892191306 8.999565197407778 4.6632537814950545 0 0 0
317 2 31.175410812534064 8.99956522304878 4.663253816327926 0 0 0
318 1 32.73418138553284 9.899521639593814 3.1043466668165425 0 0 0
319 2 34.29295196040825 8.99956522367883 4.663253822230288 0 0 0
320 1 35.85172254051612 9.899521638926105 3.1043466667330444 0 0 0
321 2 37.410493121272225 8.999565224009402 4.663253821818717 0 0 0
322 1 38.96926370239987 9.89952163889516 3.104346666665503 0 0 0
323 2 40.5280342835803 8.999565224024549 4.6632538218113995 0 0 0
324 1 42.086804864781186 9.899521638894512 3.10434666666666 0 0 0
327 1 3.1175556295615587 12.599395671272084 3.105413874332595 0 0 0
328 2 7.794011008192965 11.699436735221132 4.663682592957827 0 0 0
329 1 6.234982559036717 12.599430752754778 3.105019283992424 0 0 0
330 1 9.352584603683434 12.599386164499862 3.1046123136683463 0 0 0
331 2 10.911494546062956 11.699432247110584 4.6633734975715395 0 0 0
332 1 12.470142948964277 12.599393089746753 3.10434257371788 0 0 0
333 2 14.028965482044676 11.699429563514945 4.6632031632791735 0 0 0
334 1 15.587703832105268 12.599391820432865 3.104282788604814 0 0 0
335 2 17.146461027844857 11.699436693319768 4.663207367023853 0 0 0
336 1 18.70525200959194 12.599392277341648 3.1043265697377738 0 0 0
337 2 20.26401170056023 11.699437091938208 4.663250304885638 0 0 0
338 2 23.381560602839293 11.699434339613143 4.663256686483693 0 0 0
339 1 21.822791168883473 12.599391563711553 3.1043496408434716 0 0 0
340 2 26.49909992879506 11.699434624890596 4.663254036105013 0 0 0
341 1 24.94032971808646 12.599391326953075 3.104347806453249 0 0 0
342 2 29.616640283420384 11.699434770552317 4.663253792862451 0 0 0
343 1 28.05786986955037 12.599391214815045 3.104346604288672 0 0 0
344 1 31.175410824165642 12.599391190298753 3.10434665903462 0 0 0
345 2 32.73418138277055 11.699434771915081 4.66325382230716 0 0 0
346 1 34.29295196094521 12.599391187836522 3.1043466670465647 0 0 0
347 2 35.851722540403436 11.699434772732083 4.663253821896563 0 0 0
348 1 37.4104931212889 12.59939118769054 3.104346666667823 0 0 0
349 2 38.96926370239136 11.699434772813548 4.663253821810843 0 0 0
350 1 40.52803428358117 12.599391187685503 3.104346666666438 0 0 0
351 2 42.08680486478078 11.699434772815863 4.663253821811381 0 0 0
352 1 1.5587898109192992 15.29924787230249 3.1055818479110897 0 0 0
353 1 4.676302581912526 15.299278506786829 3.1052068625951827 0 0 0
355 1 7.793733192616456 15.299218768281719 3.104828094365868 0 0 0
357 2 9.35275700155567 14.3993008267691 4.663520012740557 0 0 0
358 1 10.911358108499336 15.299265058278861 3.1044511068675877 0 0 0
359 2 12.470232602616841 14.399305965619774 4.663262883987094 0 0 0
360 1 14.028924953118425 15.299262076726201 3.1042884533858017 0 0 0
361 2 15.58770348133609 14.399302675217877 4.663188663421287 0 0 0
362 1 17.146479547635717 15.299261977177055 3.1043016096598035 0 0 0
363 2 18.70523298012195 14.399308169736118 4.663232605886675 0 0 0
364 1 20.26402195114788 15.299261400771513 3.104343335922861 0 0 0
365 1 23.381560127972637 15.299260960855948 3.1043494370371056 0 0 0
366 2 21.822788111942813 14.399304774844756 4.663256744608037 0 0 0
367 1 26.49909958732751 15.299260802683904 3.1043468340457374 0 0 0
368 2 24.940330346969905 14.39930394405862 4.663255008211058 0 0 0
369 1 29.61664029520426 15.299260745575403 3.104346627476583 0 0 0
370 2 28.057869892191274 14.399304294989593 4.6632537814950465 0 0 0
371 2 31.175410812534075 14.399304320630595 4.6632538163279325 0 0 0
372 1 32.73418138553284 15.299260737175606 3.1043466668165545 0 0 0
373 2 34.29295196040823 14.399304321260642 4.663253822230278 0 0 0
374 1 35.8517225405161 15.299260736507899 3.1043466667330577 0 0 0
375 2 37.410493121272225 14.399304321591211 4.663253821818707 0 0 0
376 1 38.96926370239987 15.299260736476953 3.1043466666654873 0 0 0
377 2 40.5280342835803 14.399304321606339 4.6632538218113835 0 0 0
378 1 42.086804864781186 15.299260736476294 3.1043466666666584 0 0 0
381 1 3.1175556295615716 17.99913476885381 3.105413874332596 0 0 0
382 2 7.7940110081929594 17.0991758328029 4.66368259295782 0 0 0
383 1 6.234982559036717 17.99916985033657 3.1050192839924207 0 0 0
384 1 9.352584603683438 17.999125262081634 3.104612313668349 0 0 0
385 2 10.91149454606295 17.099171344692387 4.663373497571552 0 0 0
386 1 12.47014294896427 17.99913218732851 3.10434257371788 0 0 0
387 2 14.028965482044676 17.099168661096734 4.6632031632791735 0 0 0
388 1 15.58770383210526 17.999130918014696 3.104282788604811 0 0 0
389 2 17.146461027844857 17.099175790901544 4.6632073670238485 0 0 0
390 1 18.70525200959194 17.999131374923387 3.1043265697377644 0 0 0
391 2 20.26401170056023 17.099176189520026 4.663250304885651 0 0 0
392 2 23.381560602839293 17.099173437194946 4.663256686483712 0 0 0
393 1 21.822791168883473 17.999130661293332 3.104349640843466 0 0 0
394 2 26.49909992879506 17.09917372247238 4.663254036105011 0 0 0
395 1 24.94032971808648 17.999130424534805 3.104347806453257 0 0 0
396 2 29.616640283420384 17.099173868134056 4.663253792862456 0 0 0
397 1 28.057869869550405 17.999130312396833 3.104346604288672 0 0 0
398 1 31.175410824165603 17.99913028788052 3.104346659034622 0 0 0
399 2 32.73418138277046 17.099173869496855 4.663253822307187 0 0 0
400 1 34.29295196094523 17.999130285418317 3.104346667046568 0 0 0
401 2 35.851722540403436 17.099173870313866 4.663253821896575 0 0 0
402 1 37.41049312128891 17.999130285272297 3.1043466666678268 0 0 0
403 2 38.96926370239136 17.09917387039533 4.663253821810838 0 0 0
404 1 40.52803428358117 17.99913028526723 3.1043466666664394 0 0 0
405 2 42.08680486478078 17.099173870397642 4.663253821811356 0 0 0
406 1 1.558789810919295 20.698986969884295 3.1055818479110724 0 0 0
407 1 4.6763025819125215 20.699017604368592 3.105206862595194 0 0 0
409 1 7.793733192616456 20.698957865863452 3.1048280943658684 0 0 0
411 2 9.35275700155566 19.79903992435086 4.663520012740556 0 0 0
412 1 10.911358108499332 20.699004155860592 3.1044511068675877 0 0 0
413 2 12.470232602616822 19.79904506320152 4.663262883987098 0 0 0
414 1 14.028924953118384 20.699001174307966 3.1042884533858017 0 0 0
415 2 15.587703481336078 19.799041772799637 4.663188663421287 0 0 0
416 1 17.146479547635707 20.699001074758815 3.1043016096598075 0 0 0
417 2 18.70523298012196 19.7990472673179 4.6632326058866855 0 0 0
418 1 20.26402195114789 20.699000498353286 3.1043433359228527 0 0 0
419 1 23.381560127972612 20.69900005843776 3.104349437037097 0 0 0
420 2 21.822788111942813 19.79904387242652 4.6632567446080255 0 0 0
421 1 26.49909958732751 20.69899990026567 3.1043468340457427 0 0 0
422 2 24.940330346969905 19.799043041640388 4.663255008211069 0 0 0
423 1 29.61664029520426 20.698999843157164 3.104346627476583 0 0 0
424 2 28.057869892191285 19.799043392571296 4.663253781495045 0 0 0
425 2 31.175410812534075 19.799043418212328 4.6632538163279245 0 0 0
426 1 32.7341813855328 20.698999834757384 3.1043466668165736 0 0 0
427 2 34.29295196040825 19.79904341884239 4.6632538222303 0 0 0
428 1 35.85172254051614 20.69899983408966 3.1043466667330524 0 0 0
429 2 37.41049312127218 19.79904341917295 4.6632538218187065 0 0 0
430 1 38.969263702399786 20.698999834058718 3.1043466666654886 0 0 0
431 2 40.528034283580276 19.799043419188134 4.663253821811412 0 0 0
432 1 42.086804864781165 20.698999834058057 3.104346666666665 0 0 0
435 1 3.117555629561564 23.398873866435554 3.1054138743326103 0 0 0
436 2 7.794011008192937 22.498914930384714 4.663682592957843 0 0 0
437 1 6.234982559036711 23.398908947918304 3.105019283992403 0 0 0
438 1 9.352584603683434 23.398864359663452 3.1046123136683574 0 0 0
439 2 10.911494546062995 22.49891044227413 4.6633734975715395 0 0 0
440 1 12.470142948964247 23.39887128491028 3.104342573717866 0 0 0
441 2 14.028965482044676 22.498907758678495 4.66320316327917 0 0 0
442 1 15.587703832105278 23.398870015596444 3.1042827886048263 0 0 0
443 2 17.146461027844868 22.498914888483316 4.663207367023865 0 0 0
444 1 18.705252009591973 23.398870472505223 3.1043265697377675 0 0 0
445 2 20.26401170056022 22.498915287101763 4.66325030488565 0 0 0
446 2 23.381560602839293 22.498912534776697 4.663256686483686 0 0 0
447 1 21.822791168883484 23.398869758875104 3.1043496408434694 0 0 0
448 2 26.499099928795076 22.498912820054137 4.663254036105024 0 0 0
449 1 24.94032971808647 23.398869522116605 3.1043478064532435 0 0 0
450 2 29.616640283420395 22.49891296571581 4.663253792862456 0 0 0
451 1 28.05786986955041 23.39886940997862 3.104346604288672 0 0 0
452 1 31.175410824165642 23.398869385462344 3.104346659034613 0 0 0
453 2 32.73418138277046 22.498912967078613 4.663253822307187 0 0 0
454 1 34.29295196094521 23.398869383000086 3.1043466670465683 0 0 0
455 2 35.851722540403436 22.498912967895663 4.663253821896576 0 0 0
456 1 37.41049312128888 23.39886938285408 3.1043466666678263 0 0 0
457 2 38.96926370239131 22.498912967977134 4.663253821810839 0 0 0
458 1 40.52803428358114 23.398869382849036 3.1043466666664443 0 0 0
459 2 42.08680486478078 22.4989129679794 4.663253821811385 0 0 0
460 1 1.558789810919281 26.09872606746601 3.1055818479110555 0 0 0