LAMMPS data file via write_data, version 2 Aug 2023, timestep = 588, units = metal

47552 atoms
3 atom types

0 1558.7698190521824 xlo xhi
0 86.39581975541866 ylo yhi
0 50 zlo zhi
0 0 0 xy xz yz

Masses

1 95.94
2 32.065
3 32.065

Atoms # atomic

1 3 1.5586955512797818 0.8999381185172823 1.546011821502305 0 0 0
2 3 4.676093697835805 0.8999266742974998 1.5459634099944783 0 0 0
3 3 7.79355204375723 0.8999649034662167 1.5459128543541876 0 0 0
4 3 10.911130406445563 0.8999602175737368 1.5456982000019153 0 0 0
5 3 14.028714124878046 0.8999562692530817 1.5455317076571327 0 0 0
6 3 17.14629543689409 0.8999582119941407 1.545409048646094 0 0 0
7 3 20.26388246740887 0.8999604979081114 1.545339240319363 0 0 0
8 3 23.381463424074816 0.8999643495058616 1.5453285877596792 0 0 0
9 3 26.499031627754672 0.899963337898729 1.5453691101483382 0 0 0
10 3 29.616581825940713 0.8999584622026722 1.545429318551228 0 0 0
11 3 3.1173992788380986 3.5998157921567393 1.5460073473379494 0 0 0
12 3 6.234796226553052 3.599803270750649 1.5460260610105514 0 0 0
13 3 9.35235325638382 3.5998297777951525 1.5457921102650531 0 0 0
14 3 12.469924896997663 3.599828095699499 1.5456097422466846 0 0 0
15 3 15.58750467125662 3.5998262618286567 1.5454635314501435 0 0 0
16 3 18.70508983924156 3.599827874799873 1.5453674739766288 0 0 0
17 3 21.82267351304313 3.5998319921411994 1.5453261965787197 0 0 0
18 3 24.9402497253505 3.59983470397413 1.5453440871908763 0 0 0
19 3 28.057809968723813 3.599829523137549 1.5453994457217428 0 0 0
20 3 31.175350726155866 3.5998268840175403 1.5454537770054881 0 0 0
21 3 1.5586955512803695 6.299676853230811 1.5460118215021506 0 0 0
22 3 4.6760936978359355 6.299665409011172 1.5459634099942778 0 0 0
23 3 7.793552043757385 6.299703638179777 1.5459128543542846 0 0 0
24 3 10.91113040644562 6.299698952287421 1.5456982000019175 0 0 0
25 3 14.028714124878062 6.299695003966745 1.5455317076571573 0 0 0
26 3 17.1462954368941 6.2996969467078605 1.5454090486460104 0 0 0
27 3 20.26388246740888 6.29969923262183 1.5453392403192794 0 0 0
28 3 23.38146342407476 6.299703084219578 1.545328587759578 0 0 0
29 3 26.49903162775466 6.29970207261239 1.5453691101483418 0 0 0
30 3 29.61658182594068 6.2996971969163384 1.5454293185511574 0 0 0
31 3 3.1173992788381306 8.99955452687028 1.5460073473381744 0 0 0
32 3 6.234796226553116 8.999542005464244 1.5460260610107046 0 0 0
33 3 9.352353256383848 8.999568512508773 1.5457921102650594 0 0 0
34 3 12.469924896997584 8.999566830413151 1.5456097422466508 0 0 0
35 3 15.58750467125665 8.999564996542317 1.5454635314500975 0 0 0
36 3 18.70508983924158 8.999566609513462 1.5453674739765824 0 0 0
37 3 21.82267351304313 8.999570726854829 1.5453261965787186 0 0 0
38 3 24.940249725350483 8.999573438687744 1.5453440871908437 0 0 0
39 3 28.057809968723813 8.999568257851191 1.5453994457217237 0 0 0
40 3 31.175350726155887 8.99956561873113 1.545453777005517 0 0 0
41 3 1.5586955512797334 11.699415587944474 1.5460118215023595 0 0 0
42 3 4.676093697836083 11.699404143724877 1.5459634099941821 0 0 0
43 3 7.7935520437573365 11.69944237289345 1.545912854354369 0 0 0
44 3 10.911130406445542 11.699437687001122 1.545698200001888 0 0 0
45 3 14.028714124878036 11.699433738680403 1.5455317076571096 0 0 0
46 3 17.14629543689412 11.699435681421514 1.5454090486460799 0 0 0
47 3 20.26388246740887 11.699437967335484 1.5453392403193256 0 0 0
48 3 23.381463424074745 11.699441818933213 1.5453285877596037 0 0 0
49 3 26.49903162775466 11.699440807326045 1.5453691101483817 0 0 0
50 3 29.616581825940713 11.69943593163 1.5454293185512065 0 0 0
51 3 3.117399278838113 14.399293261584079 1.5460073473378435 0 0 0
52 3 6.234796226553178 14.399280740177836 1.5460260610107244 0 0 0
53 3 9.352353256383836 14.399307247222465 1.545792110265082 0 0 0
54 3 12.469924896997544 14.399305565126863 1.545609742246586 0 0 0
55 3 15.587504671256625 14.399303731256037 1.5454635314501433 0 0 0
56 3 18.705089839241523 14.39930534422714 1.5453674739766186 0 0 0
57 3 21.8226735130431 14.399309461568514 1.5453261965787002 0 0 0
58 3 24.94024972535049 14.399312173401446 1.5453440871908377 0 0 0
59 3 28.057809968723845 14.399306992564883 1.5453994457217288 0 0 0
60 3 31.175350726155866 14.399304353444787 1.5454537770054744 0 0 0
61 3 1.5586955512799379 17.099154322658077 1.5460118215024783 0 0 0
62 3 4.676093697835981 17.099142878438638 1.545963409994434 0 0 0
63 3 7.793552043757381 17.099181107607144 1.545912854354246 0 0 0
64 3 10.911130406445613 17.099176421714816 1.5456982000018364 0 0 0
65 3 14.028714124878041 17.099172473394056 1.545531707657154 0 0 0
66 3 17.14629543689407 17.09917441613518 1.5454090486460177 0 0 0
67 3 20.263882467408838 17.099176702049103 1.5453392403193216 0 0 0
68 3 23.38146342407478 17.099180553646843 1.545328587759562 0 0 0
69 3 26.49903162775463 17.099179542039685 1.545369110148368 0 0 0
70 3 29.616581825940724 17.099174666343657 1.5454293185511816 0 0 0
71 3 3.117399278838298 19.79903199629783 1.5460073473382194 0 0 0
72 3 6.23479622655309 19.79901947489163 1.5460260610106806 0 0 0
73 3 9.352353256383859 19.799045981936153 1.545792110265019 0 0 0
74 3 12.469924896997606 19.79904429984056 1.5456097422466175 0 0 0
75 3 15.587504671256603 19.799042465969688 1.5454635314501384 0 0 0
76 3 18.705089839241523 19.799044078940785 1.5453674739766836 0 0 0
77 3 21.82267351304313 19.799048196282154 1.5453261965787268 0 0 0
78 3 24.94024972535051 19.79905090811507 1.5453440871908357 0 0 0
79 3 28.057809968723845 19.79904572727856 1.545399445721784 0 0 0
80 3 31.175350726155877 19.799043088158466 1.5454537770054924 0 0 0
81 3 1.5586955512800011 22.498893057371728 1.5460118215024303 0 0 0
82 3 4.676093697836002 22.498881613152147 1.5459634099943713 0 0 0
83 3 7.7935520437573675 22.49891984232087 1.5459128543542695 0 0 0
84 3 10.911130406445576 22.498915156428506 1.5456982000018256 0 0 0
85 3 14.02871412487799 22.498911208107703 1.5455317076571493 0 0 0
86 3 17.14629543689405 22.498913150848907 1.5454090486461052 0 0 0
87 3 20.26388246740887 22.49891543676287 1.5453392403193662 0 0 0
88 3 23.38146342407476 22.49891928836052 1.5453285877596203 0 0 0
89 3 26.49903162775466 22.498918276753397 1.5453691101483602 0 0 0
90 3 29.616581825940756 22.498913401057354 1.5454293185511911 0 0 0
91 3 3.117399278838202 25.19877073101115 1.5460073473379856 0 0 0
92 3 6.234796226553114 25.19875820960521 1.5460260610107444 0 0 0
93 3 9.352353256383854 25.198784716649833 1.5457921102650385 0 0 0
94 3 12.469924896997549 25.19878303455426 1.545609742246625 0 0 0
95 3 15.58750467125662 25.198781200683403 1.5454635314501581 0 0 0
96 3 18.705089839241523 25.198782813654553 1.5453674739766416 0 0 0
97 3 21.822673513043146 25.198786930995862 1.545326196578692 0 0 0
98 3 24.94024972535055 25.198789642828746 1.545344087190817 0 0 0
99 3 28.057809968723845 25.1987844619922 1.5453994457217635 0 0 0
100 3 31.175350726155916 25.19878182287213 1.5454537770055032 0 0 0
101 3 1.558695551279802 27.89863179208571 1.5460118215020235 0 0 0
102 3 4.6760936978361025 27.89862034786581 1.5459634099943662 0 0 0
103 3 7.793552043757476 27.898658577034478 1.545912854354315 0 0 0
104 3 10.91113040644562 27.898653891142175 1.5456982000018622 0 0 0
105 3 14.028714124877979 27.898649942821404 1.545531707657136 0 0 0
106 3 17.146295436894025 27.898651885562572 1.5454090486460526 0 0 0
107 3 20.26388246740887 27.89865417147652 1.5453392403193538 0 0 0
108 3 23.38146342407479 27.898658023074223 1.5453285877595955 0 0 0
109 3 26.49903162775465 27.89865701146709 1.5453691101483753 0 0 0
110 3 29.616581825940756 27.898652135771048 1.5454293185512011 0 0 0
111 3 3.117399278838386 30.59850946572528 1.5460073473379339 0 0 0
112 3 6.234796226553274 30.598496944318942 1.5460260610106662 0 0 0
113 3 9.352353256383898 30.59852345136348 1.5457921102651242 0 0 0
114 3 12.469924896997625 30.598521769267933 1.545609742246587 0 0 0
115 3 15.587504671256609 30.59851993539708 1.5454635314501124 0 0 0
116 3 18.705089839241523 30.598521548368215 1.5453674739766246 0 0 0
117 3 21.822673513043156 30.598525665709545 1.545326196578742 0 0 0
118 3 24.94024972535055 30.59852837754246 1.5453440871907926 0 0 0
119 3 28.057809968723813 30.598523196705905 1.5453994457216993 0 0 0
120 3 31.175350726155887 30.598520557585807 1.5454537770055714 0 0 0
121 3 1.5586955512802523 33.29837052679954 1.5460118215018805 0 0 0
122 3 4.676093697835848 33.298359082579715 1.5459634099945303 0 0 0
123 3 7.793552043757378 33.29839731174822 1.5459128543543208 0 0 0
124 3 10.911130406445604 33.29839262585582 1.5456982000018693 0 0 0
125 3 14.02871412487803 33.298388677535065 1.5455317076571529 0 0 0
126 3 17.14629543689407 33.29839062027622 1.5454090486460392 0 0 0
127 3 20.26388246740887 33.29839290619019 1.5453392403193051 0 0 0
128 3 23.381463424074816 33.29839675778789 1.5453285877595881 0 0 0
129 3 26.499031627754672 33.298395746180695 1.5453691101483262 0 0 0
130 3 29.616581825940745 33.29839087048467 1.5454293185512364 0 0 0
131 3 3.1173992788379197 35.9982482004389 1.5460073473382614 0 0 0
132 3 6.234796226552985 35.99823567903268 1.5460260610107575 0 0 0
133 3 9.352353256383791 35.99826218607715 1.5457921102650058 0 0 0
134 3 12.469924896997579 35.99826050398161 1.545609742246583 0 0 0
135 3 15.587504671256598 35.99825867011071 1.5454635314501302 0 0 0
136 3 18.70508983924158 35.998260283081805 1.545367473976619 0 0 0
137 3 21.822673513043167 35.99826440042317 1.5453261965787293 0 0 0
138 3 24.940249725350522 35.998267112256116 1.5453440871908464 0 0 0
139 3 28.057809968723813 35.99826193141963 1.5453994457217761 0 0 0
140 3 31.175350726155887 35.99825929229954 1.545453777005413 0 0 0
141 3 1.5586955512798355 38.698109261512876 1.5460118215019347 0 0 0
142 3 4.676093697835708 38.69809781729331 1.5459634099945103 0 0 0
143 3 7.793552043757288 38.69813604646189 1.5459128543543617 0 0 0
144 3 10.911130406445603 38.69813136056956 1.5456982000018469 0 0 0
145 3 14.028714124878041 38.698127412248795 1.545531707657102 0 0 0
146 3 17.14629543689406 38.69812935498982 1.5454090486460268 0 0 0
147 3 20.26388246740886 38.69813164090385 1.5453392403193185 0 0 0
148 3 23.381463424074816 38.69813549250162 1.5453285877595164 0 0 0
149 3 26.499031627754672 38.69813448089436 1.5453691101483475 0 0 0
150 3 29.616581825940766 38.69812960519839 1.5454293185511891 0 0 0
151 3 3.1173992788381075 41.397986935152254 1.546007347338677 0 0 0
152 3 6.234796226552927 41.39797441374643 1.5460260610107106 0 0 0
153 3 9.352353256383763 41.39800092079082 1.5457921102650172 0 0 0
154 3 12.469924896997568 41.39799923869526 1.5456097422466482 0 0 0
155 3 15.587504671256609 41.397997404824366 1.545463531450138 0 0 0
156 3 18.70508983924158 41.39799901779552 1.545367473976639 0 0 0
157 3 21.8226735130432 41.39800313513681 1.5453261965787297 0 0 0
158 3 24.940249725350533 41.398005846969795 1.5453440871909037 0 0 0
159 3 28.057809968723813 41.398000666133306 1.5453994457217899 0 0 0
160 3 31.175350726155866 41.39799802701314 1.5454537770054788 0 0 0
163 1 3.117420988728512 1.7999131955553638 3.1049808006590878 0 0 0
164 2 7.793777748331085 0.8999604540261704 4.663702426478226 0 0 0
165 1 6.234827237124137 1.799865141367168 3.1049286017513538 0 0 0
166 1 9.352443759174447 1.7999162456426048 3.1047006913880235 0 0 0
167 2 10.911316841862533 0.8999565205981563 4.663508853339232 0 0 0
168 1 12.470006946926139 1.7999094631276078 3.104511622681018 0 0 0
169 2 14.028860188768034 0.8999545868711124 4.663343172158213 0 0 0
170 1 15.587566034237899 1.7999094354943688 3.1043691996213796 0 0 0
171 2 17.146395033644048 0.8999532959166234 4.663219453253911 0 0 0
172 1 18.705123635002153 1.7999096903105307 3.10427158446194 0 0 0
173 2 20.26392155161583 0.8999566343038894 4.663150066644514 0 0 0
174 2 23.381446924462843 0.899959791826078 4.6631412829198275 0 0 0
175 1 21.82267863689299 1.7999151939313485 3.1042321905600736 0 0 0
176 2 26.498977548764813 0.8999619717895496 4.66318127815232 0 0 0
177 1 24.940229702329336 1.7999180291091126 3.10424834277988 0 0 0
178 2 29.616529391035844 0.8999599432798221 4.663241299759004 0 0 0
179 1 28.057780630568278 1.7999152735342674 3.1043048169653207 0 0 0
180 1 31.175331128690086 1.79991364217841 3.1043608371620963 0 0 0
181 1 1.5586992512243902 4.499784382016844 3.1050023441162233 0 0 0
182 1 4.676093624368613 4.499813614246861 3.1049885698988406 0 0 0
184 1 7.793675523483989 4.4997765542341925 3.1048011325206786 0 0 0
185 2 6.234998092411072 3.5998294867908274 4.6637816936779 0 0 0
186 2 9.352549783034176 3.5998266517985464 4.663607074675721 0 0 0
187 1 10.911229752364852 4.499780767494753 3.1046029085525015 0 0 0
188 2 12.470091123432354 3.5998256676934632 4.663420756141149 0 0 0
189 1 14.028788598742802 4.499778449582365 3.104436131377651 0 0 0
190 2 15.587630414377939 3.5998228928835627 4.663276454901034 0 0 0
191 1 17.146345500836194 4.4997782528123755 3.104312385910174 0 0 0
192 2 18.705160515809716 3.599822890945502 4.663176775530069 0 0 0
193 1 20.26390209038841 4.499782007623688 3.1042454293634925 0 0 0
194 1 23.38145376651032 4.499786312505177 3.104232894810596 0 0 0
195 2 21.822683654961693 3.599827949489705 4.663139018209318 0 0 0
196 1 26.499005848776243 4.4997865729012965 3.10427431196287 0 0 0
197 2 24.940210155872997 3.599831159437972 4.663155975630439 0 0 0
198 1 29.616556193809878 4.499783484174705 3.104335065093279 0 0 0
199 2 28.057751712879448 3.599830075554868 4.663211506854646 0 0 0
200 2 31.175311186573058 3.5998294906748107 4.663266021249565 0 0 0
203 1 3.1174209887284525 7.199651930268799 3.1049808006585424 0 0 0
204 2 7.7937777483311494 6.29969918873972 4.6637024264782365 0 0 0
205 1 6.234827237124197 7.199603876080741 3.1049286017513644 0 0 0
206 1 9.35244375917451 7.19965498035626 3.1047006913880915 0 0 0
207 2 10.91131684186263 6.299695255311789 4.663508853339344 0 0 0
208 1 12.470006946926253 7.19964819784123 3.1045116226810294 0 0 0
209 2 14.028860188768075 6.299693321584741 4.6633431721581795 0 0 0
210 1 15.587566034237893 7.199648170208041 3.104369199621331 0 0 0
211 2 17.146395033644033 6.299692030630318 4.663219453253957 0 0 0
212 1 18.705123635002217 7.199648425024193 3.104271584461932 0 0 0
213 2 20.263921551615816 6.299695369017586 4.663150066644564 0 0 0
214 2 23.381446924462775 6.299698526539742 4.663141282919878 0 0 0
215 1 21.822678636893013 7.199653928644979 3.1042321905600754 0 0 0
216 2 26.498977548764774 6.2997007065032244 4.663181278152315 0 0 0
217 1 24.9402297023294 7.199656763822759 3.104248342779851 0 0 0
218 2 29.616529391035833 6.299698677993485 4.663241299759091 0 0 0
219 1 28.057780630568267 7.199654008247964 3.104304816965321 0 0 0
220 1 31.17533112869023 7.199652376892147 3.1043608371621123 0 0 0
221 1 1.5586992512242976 9.899523116730295 3.105002344116069 0 0 0
222 1 4.676093624368734 9.899552348960336 3.1049885698989916 0 0 0
224 1 7.793675523484036 9.899515288947903 3.1048011325207354 0 0 0
225 2 6.234998092411212 8.999568221504322 4.663781693677897 0 0 0
226 2 9.352549783034203 8.999565386512227 4.663607074675762 0 0 0
227 1 10.911229752364852 9.899519502208488 3.1046029085525095 0 0 0
228 2 12.470091123432317 8.999564402407167 4.6634207561411625 0 0 0
229 1 14.028788598742837 9.899517184296055 3.1044361313776174 0 0 0
230 2 15.58763041437795 8.999561627597211 4.66327645490102 0 0 0
231 1 17.14634550083619 9.899516987526097 3.1043123859101542 0 0 0
232 2 18.705160515809716 8.999561625659087 4.663176775530124 0 0 0
233 1 20.26390209038851 9.899520742337396 3.1042454293635138 0 0 0
234 1 23.38145376651032 9.899525047218887 3.104232894810569 0 0 0
235 2 21.822683654961647 8.999566684203337 4.663139018209333 0 0 0
236 1 26.499005848776232 9.899525307614967 3.1042743119628526 0 0 0
237 2 24.940210155872997 8.99956989415157 4.663155975630465 0 0 0
238 1 29.616556193809878 9.899522218888375 3.1043350650933146 0 0 0
239 2 28.05775171287946 8.999568810268498 4.663211506854649 0 0 0
240 2 31.17531118657307 8.99956822538844 4.663266021249529 0 0 0
243 1 3.1174209887282185 12.599390664982373 3.1049808006584896 0 0 0
244 2 7.793777748331204 11.69943792345335 4.663702426478255 0 0 0
245 1 6.2348272371242714 12.599342610794343 3.1049286017513946 0 0 0
246 1 9.352443759174463 12.599393715069972 3.1047006913881003 0 0 0
247 2 10.911316841862646 11.699433990025556 4.6635088533393025 0 0 0
248 1 12.47000694692622 12.599386932554864 3.104511622680966 0 0 0
249 2 14.028860188768029 11.699432056298406 4.663343172158131 0 0 0
250 1 15.587566034237945 12.599386904921662 3.104369199621338 0 0 0
251 2 17.14639503364401 11.69943076534399 4.663219453253923 0 0 0
252 1 18.705123635002227 12.599387159737866 3.1042715844619577 0 0 0
253 2 20.263921551615816 11.699434103731264 4.663150066644541 0 0 0
254 2 23.381446924462775 11.699437261253387 4.663141282919848 0 0 0
255 1 21.822678636893013 12.599392663358566 3.104232190560057 0 0 0
256 2 26.498977548764763 11.699439441216866 4.66318127815226 0 0 0
257 1 24.94022970232945 12.599395498536381 3.1042483427798655 0 0 0
258 2 29.616529391035854 11.69943741270714 4.6632412997590516 0 0 0
259 1 28.05778063056829 12.599392742961648 3.1043048169653154 0 0 0
260 1 31.175331128690118 12.599391111605792 3.104360837162101 0 0 0
261 1 1.5586992512238251 15.29926185144403 3.1050023441164725 0 0 0
262 1 4.6760936243688285 15.299291083674236 3.1049885698989055 0 0 0
264 1 7.793675523484062 15.299254023661462 3.1048011325207097 0 0 0
265 2 6.234998092411297 14.399306956218123 4.6637816936779215 0 0 0
266 2 9.352549783034238 14.399304121225956 4.663607074675718 0 0 0
267 1 10.91122975236484 15.299258236922103 3.10460290855247 0 0 0
268 2 12.47009112343224 14.399303137120848 4.663420756141138 0 0 0
269 1 14.028788598742832 15.29925591900966 3.104436131377606 0 0 0
270 2 15.587630414377893 14.399300362310926 4.663276454901038 0 0 0
271 1 17.146345500836205 15.299255722239659 3.1043123859101818 0 0 0
272 2 18.705160515809705 14.39930036037279 4.663176775530131 0 0 0
273 1 20.263902090388523 15.299259477051043 3.1042454293635204 0 0 0
274 1 23.38145376651033 15.299263781932577 3.1042328948105697 0 0 0
275 2 21.822683654961637 14.399305418917034 4.663139018209355 0 0 0
276 1 26.499005848776182 15.299264042328659 3.104274311962854 0 0 0
277 2 24.940210155872997 14.399308628865299 4.6631559756304455 0 0 0
278 1 29.616556193809803 15.299260953601992 3.104335065093309 0 0 0
279 2 28.05775171287946 14.399307544982182 4.66321150685465 0 0 0
280 2 31.175311186573065 14.399306960102106 4.663266021249569 0 0 0
283 1 3.117420988728255 17.99912939969609 3.1049808006586153 0 0 0
284 2 7.793777748331248 17.099176658167163 4.663702426478181 0 0 0
285 1 6.234827237124235 17.99908134550801 3.104928601751366 0 0 0
286 1 9.352443759174463 17.999132449783662 3.104700691388018 0 0 0
287 2 10.911316841862625 17.0991727247392 4.663508853339313 0 0 0
288 1 12.470006946926272 17.999125667268533 3.1045116226810023 0 0 0
289 2 14.028860188768002 17.099170791012046 4.663343172158154 0 0 0
290 1 15.587566034237929 17.999125639635302 3.104369199621386 0 0 0
291 2 17.14639503364401 17.099169500057638 4.663219453253988 0 0 0
292 1 18.705123635002277 17.999125894451627 3.1042715844619555 0 0 0
293 2 20.263921551615816 17.099172838444925 4.663150066644532 0 0 0
294 2 23.3814469244628 17.099175995967034 4.6631412829198995 0 0 0
295 1 21.822678636892913 17.99913139807233 3.104232190560058 0 0 0
296 2 26.498977548764785 17.099178175930543 4.663181278152287 0 0 0
297 1 24.94022970232944 17.99913423325012 3.1042483427798597 0 0 0
298 2 29.616529391035876 17.099176147420803 4.663241299759048 0 0 0
299 1 28.057780630568214 17.99913147767534 3.104304816965314 0 0 0
300 1 31.175331128690022 17.99912984631942 3.104360837162127 0 0 0
301 1 1.558699251223908 20.69900058615725 3.1050023441157846 0 0 0
302 1 4.676093624368862 20.699029818387615 3.1049885698991977 0 0 0
304 1 7.7936755234840644 20.698992758375077 3.1048011325206635 0 0 0
305 2 6.234998092411334 19.799045690931656 4.663781693677856 0 0 0
306 2 9.352549783034261 19.799042855939614 4.6636070746757 0 0 0
307 1 10.91122975236488 20.6989969716358 3.104602908552461 0 0 0
308 2 12.470091123432265 19.799041871834525 4.6634207561411625 0 0 0
309 1 14.028788598742832 20.69899465372338 3.1044361313776307 0 0 0
310 2 15.587630414377893 19.79903909702458 4.66327645490109 0 0 0
311 1 17.146345500836293 20.69899445695338 3.1043123859101875 0 0 0
312 2 18.705160515809695 19.799039095086407 4.663176775530053 0 0 0
313 1 20.263902090388427 20.69899821176468 3.1042454293635076 0 0 0
314 1 23.38145376651023 20.699002516646274 3.1042328948105866 0 0 0
315 2 21.82268365496167 19.799044153630664 4.663139018209327 0 0 0
316 1 26.49900584877622 20.699002777042235 3.104274311962856 0 0 0
317 2 24.940210155873 19.79904736357893 4.66315597563045 0 0 0
318 1 29.616556193809846 20.698999688315602 3.1043350650933124 0 0 0
319 2 28.057751712879465 19.799046279695897 4.663211506854612 0 0 0
320 2 31.175311186573097 19.799045694815806 4.663266021249577 0 0 0
323 1 3.1174209887283015 23.398868134409636 3.1049808006584168 0 0 0
324 2 7.793777748331221 22.498915392880768 4.663702426478274 0 0 0
325 1 6.234827237124269 23.398820080221657 3.1049286017514595 0 0 0
326 1 9.352443759174472 23.39887118449724 3.1047006913880635 0 0 0
327 2 10.911316841862641 22.49891145945289 4.663508853339288 0 0 0
328 1 12.470006946926242 23.398864401982188 3.104511622680968 0 0 0
329 2 14.028860188767966 22.498909525725754 4.663343172158142 0 0 0
330 1 15.587566034237907 23.39886437434896 3.104369199621375 0 0 0
331 2 17.146395033643987 22.4989082347714 4.663219453253917 0 0 0
332 1 18.70512363500221 23.398864629165047 3.104271584461954 0 0 0
333 2 20.263921551615816 22.49891157315862 4.66315006664449 0 0 0
334 2 23.38144692446281 22.498914730680728 4.6631412829198435 0 0 0
335 1 21.822678636892913 23.398870132785767 3.1042321905600674 0 0 0
336 2 26.498977548764785 22.49891691064423 4.663181278152283 0 0 0
337 1 24.94022970232945 23.398872967963694 3.1042483427798464 0 0 0
338 2 29.616529391035865 22.498914882134482 4.663241299759075 0 0 0
339 1 28.057780630568256 23.398870212389035 3.10430481696532 0 0 0
340 1 31.175331128690033 23.398868581033142 3.1043608371621048 0 0 0
341 1 1.5586992512239752 26.09873932087112 3.105002344116444 0 0 0
342 1 4.676093624368794 26.098768553101316 3.1049885698988624 0 0 0
344 1 7.793675523484016 26.09873149308869 3.1048011325207394 0 0 0
345 2 6.23499809241123 25.198784425645425 4.663781693677886 0 0 0
346 2 9.352549783034272 25.19878159065328 4.66360707467578 0 0 0
347 1 10.91122975236497 26.09873570634943 3.1046029085524753 0 0 0
348 2 12.470091123432272 25.198780606548212 4.663420756141108 0 0 0
349 1 14.028788598742791 26.09873338843694 3.1044361313775863 0 0 0
350 2 15.58763041437786 25.19877783173827 4.66327645490101 0 0 0
351 1 17.146345500836137 26.09873319166684 3.1043123859101915 0 0 0
352 2 18.70516051580968 25.198777829800175 4.663176775530124 0 0 0
353 1 20.263902090388395 26.098736946478287 3.1042454293635147 0 0 0
354 1 23.38145376651022 26.09874125135991 3.1042328948105773 0 0 0
355 2 21.822683654961693 25.19878288834438 4.663139018209352 0 0 0
356 1 26.499005848776232 26.0987415117559 3.1042743119628327 0 0 0
357 2 24.94021015587301 25.198786098292608 4.663155975630446 0 0 0
358 1 29.616556193809792 26.09873842302933 3.104335065093335 0 0 0
359 2 28.057751712879465 25.198785014409523 4.663211506854607 0 0 0
360 2 31.175311186573108 25.1987844295294 4.663266021249543 0 0 0
363 1 3.117420988728353 28.798606869123244 3.10498080065812 0 0 0
364 2 7.793777748331263 27.89865412759447 4.663702426478268 0 0 0
365 1 6.234827237124362 28.798558814935483 3.1049286017514754 0 0 0
366 1 9.352443759174578 28.79860991921106 3.104700691388085 0 0 0
367 2 10.911316841862709 27.898650194166564 4.663508853339296 0 0 0
368 1 12.47000694692618 28.79860313669574 3.104511622680992 0 0 0
369 2 14.028860188767945 27.898648260439405 4.663343172158119 0 0 0
370 1 15.587566034237826 28.798603109062483 3.1043691996213503 0 0 0
371 2 17.14639503364394 27.89864696948506 4.663219453253974 0 0 0
372 1 18.7051236350022 28.798603363878765 3.1042715844619533 0 0 0
373 2 20.263921551615816 27.89865030787227 4.663150066644516 0 0 0
374 2 23.381446924462832 27.898653465394425 4.663141282919854 0 0 0
375 1 21.822678636892913 28.798608867499503 3.1042321905600643 0 0 0
376 2 26.498977548764774 27.898655645357927 4.663181278152283 0 0 0
377 1 24.94022970232944 28.798611702677302 3.104248342779864 0 0 0
378 2 29.616529391035854 27.898653616848176 4.663241299759042 0 0 0
379 1 28.057780630568278 28.79860894710263 3.1043048169653127 0 0 0
380 1 31.175331128690118 28.798607315746846 3.104360837162102 0 0 0
381 1 1.558699251223398 31.498478055584506 3.1050023441157832 0 0 0
382 1 4.676093624369029 31.49850728781535 3.1049885698989073 0 0 0
384 1 7.793675523484181 31.498470227802475 3.1048011325207585 0 0 0
385 2 6.234998092411408 30.598523160359086 4.663781693677919 0 0 0
386 2 9.352549783034306 30.59852032536691 4.663607074675748 0 0 0
387 1 10.911229752364806 31.498474441063 3.104602908552469 0 0 0
388 2 12.470091123432303 30.598519341261895 4.663420756141129 0 0 0
389 1 14.02878859874277 31.49847212315059 3.104436131377609 0 0 0
390 2 15.587630414377882 30.598516566451963 4.663276454901048 0 0 0
391 1 17.14634550083609 31.498471926380546 3.10431238591019 0 0 0
392 2 18.705160515809663 30.598516564513794 4.663176775530118 0 0 0
393 1 20.263902090388505 31.498475681191938 3.104245429363528 0 0 0
394 1 23.381453766510173 31.498479986073626 3.1042328948105804 0 0 0
395 2 21.822683654961693 30.59852162305807 4.663139018209317 0 0 0
396 1 26.49900584877622 31.498480246469565 3.104274311962855 0 0 0
397 2 24.940210155873054 30.598524833006326 4.663155975630499 0 0 0
398 1 29.616556193810002 31.49847715774302 3.1043350650933124 0 0 0
399 2 28.057751712879448 30.598523749123213 4.663211506854703 0 0 0
400 2 31.175311186573065 30.598523164243176 4.663266021249465 0 0 0
403 1 3.1174209887287074 34.19834560383758 3.104980800658733 0 0 0
404 2 7.793777748331183 33.29839286230819 4.663702426478284 0 0 0
405 1 6.234827237124204 34.19829754964912 3.1049286017515167 0 0 0
406 1 9.352443759174516 34.1983486539245 3.104700691388032 0 0 0
407 2 10.911316841862646 33.29838892888023 4.663508853339258 0 0 0
408 1 12.470006946926196 34.19834187140938 3.104511622680962 0 0 0
409 2 14.028860188768007 33.2983869951531 4.663343172158109 0 0 0
410 1 15.587566034237836 34.19834184377611 3.104369199621348 0 0 0
411 2 17.146395033643987 33.298385704198715 4.663219453253976 0 0 0
412 1 18.7051236350022 34.198342098592526 3.1042715844619493 0 0 0
413 2 20.263921551615816 33.298389042585946 4.66315006664458 0 0 0
414 2 23.381446924462843 33.29839220010804 4.663141282919863 0 0 0
415 1 21.822678636892967 34.19834760221336 3.1042321905600545 0 0 0
416 2 26.498977548764774 33.298394380071585 4.663181278152316 0 0 0
417 1 24.940229702329326 34.19835043739113 3.1042483427798575 0 0 0
418 2 29.616529391035854 33.29839235156186 4.66324129975903 0 0 0
419 1 28.057780630568267 34.198347681816315 3.1043048169653056 0 0 0
420 1 31.175331128690086 34.19834605046029 3.1043608371621034 0 0 0
421 1 1.5586992512239624 36.898216790298605 3.105002344116263 0 0 0
422 1 4.676093624368703 36.89824602252903 3.104988569898947 0 0 0
424 1 7.793675523483945 36.898208962516335 3.1048011325207336 0 0 0
425 2 6.234998092411176 35.99826189507278 4.663781693677947 0 0 0
426 2 9.352549783034194 35.9982590600806 4.663607074675746 0 0 0
427 1 10.91122975236479 36.89821317577657 3.1046029085524967 0 0 0
428 2 12.470091123432265 35.9982580759756 4.663420756141148 0 0 0
429 1 14.028788598742869 36.89821085786415 3.1044361313776316 0 0 0
430 2 15.587630414377893 35.99825530116568 4.663276454901049 0 0 0
431 1 17.146345500836148 36.89821066109434 3.10431238591017 0 0 0
432 2 18.70516051580975 35.99825529922745 4.663176775530113 0 0 0
433 1 20.26390209038839 36.8982144159057 3.1042454293635258 0 0 0
434 1 23.381453766510297 36.8982187207871 3.1042328948105724 0 0 0
435 2 21.822683654961715 35.998260357771684 4.6631390182093275 0 0 0
436 1 26.499005848776306 36.89821898118329 3.1042743119628646 0 0 0
437 2 24.940210155872997 35.998263567719974 4.663155975630447 0 0 0
438 1 29.616556193809792 36.898215892456705 3.1043350650932866 0 0 0
439 2 28.057751712879437 35.99826248383691 4.663211506854593 0 0 0
440 2 31.175311186573087 35.9982618989569 4.66326602124963 0 0 0
443 1 3.1174209887283517 39.598084338551004 3.104980800658204 0 0 0
444 2 7.793777748331144 38.69813159702179 4.6637024264781415 0 0 0
445 1 6.234827237124251 39.5980362843628 3.1049286017515096 0 0 0
446 1 9.35244375917446 39.59808738863823 3.104700691387999 0 0 0
447 2 10.911316841862607 38.69812766359394 4.66350885333932 0 0 0
448 1 12.470006946926242 39.598080606123204 3.104511622680981 0 0 0
449 2 14.028860188768018 38.69812572986678 4.663343172158214 0 0 0
450 1 15.587566034237907 39.59808057848992 3.1043691996213525 0 0 0
451 2 17.146395033643998 38.69812443891233 4.663219453253956 0 0 0
452 1 18.705123635002245 39.59808083330624 3.10427158446194 0 0 0
453 2 20.26392155161584 38.69812777729958 4.663150066644519 0 0 0
454 2 23.38144692446281 38.698130934821755 4.663141282919951 0 0 0
455 1 21.822678636892913 39.59808633692703 3.104232190560057 0 0 0
442 1 24.94022970232943 39.598089172104906 3.1042483427798575 0 0 0
456 2 26.498977548764806 38.69813311478525 4.6631812781523125 0 0 0
423 1 28.057780630568214 39.59808641652999 3.1043048169653225 0 0 0
441 2 29.616529391035876 38.69813108627552 4.663241299759039 0 0 0
402 1 31.175331128690118 39.59808478517414 3.1043608371621056 0 0 0
401 1 1.558699251224056 42.29795552501219 3.105002344116377 0 0 0
383 1 4.676093624368613 42.29798475724255 3.104988569899144 0 0 0
361 2 6.23499809241126 41.39800062978653 4.663781693677888 0 0 0
362 1 7.793675523483966 42.297947697229965 3.104801132520675 0 0 0
343 2 9.352549783034206 41.397997794794364 4.663607074675735 0 0 0