LAMMPS data file via write_data, version 2 Aug 2023, timestep = 1768, units = metal

46416 atoms
3 atom types

0 1558.765416398453 xlo xhi
0 86.39569222059139 ylo yhi
0 50 zlo zhi
0 0 0 xy xz yz

Masses

1 95.94
2 32.065
3 32.065

Atoms # atomic

1 3 1.558718874363907 0.8999302983516074 1.5466357782569171 0 0 0
2 3 4.676132832592913 0.8999337841534317 1.546693262840893 0 0 0
3 3 7.7935194422060325 0.8999520315561507 1.5466887486883334 0 0 0
4 3 10.91091983142157 0.8999584517871404 1.5465662419160089 0 0 0
5 3 14.028331538364776 0.8999271027640403 1.5464440485059183 0 0 0
6 3 17.14576578743793 0.8999425410572375 1.5462824705645988 0 0 0
7 3 20.263201893068327 0.8999502455844149 1.5462326509433202 0 0 0
8 3 23.380618456660603 0.8999452613299244 1.5462211096079888 0 0 0
9 3 26.498031073299334 0.8999333009342637 1.5461669600551984 0 0 0
10 3 29.615643728544303 0.8999577133040494 1.5458879068320122 0 0 0
11 3 32.73321965795184 0.8999639771465048 1.5456953915791745 0 0 0
12 3 35.850808169151804 0.8999542019040644 1.545526307655996 0 0 0
13 3 38.96841243131857 0.8999693386414853 1.5453576097251704 0 0 0
14 3 42.08603792517479 0.8999575908320411 1.5452928731304634 0 0 0
15 3 3.1174271510261833 3.5998073401038093 1.5466594670133227 0 0 0
16 3 6.234832573518134 3.5997927201205666 1.5467133760044762 0 0 0
17 3 9.35221244851862 3.5998414176570406 1.5466282255283033 0 0 0
18 3 12.46962793728798 3.5997940757703857 1.5465142715167457 0 0 0
19 3 15.58705045063199 3.5998059391704436 1.5463551881117348 0 0 0
20 3 18.704472998336094 3.5998249669215436 1.5462488234274798 0 0 0
21 3 21.821911929740228 3.59979991578641 1.546217459275885 0 0 0
22 3 24.939320198635208 3.5997819228418306 1.5461438801415934 0 0 0
23 3 28.056814877981946 3.5998392880373546 1.5460159132448426 0 0 0
24 3 31.174407773814234 3.5998268606237147 1.5457874036077215 0 0 0
25 3 34.292015573158984 3.59982204993311 1.545608075150355 0 0 0
26 3 37.40960390697002 3.5998275618395654 1.5454375629840411 0 0 0
27 3 40.527242401491364 3.5998336168540432 1.545311981158092 0 0 0
28 3 1.5587188743591671 6.299661062142619 1.5466357782587443 0 0 0
29 3 4.676132832594817 6.299664547939634 1.5466932628388164 0 0 0
30 3 7.79351944220491 6.299682795344001 1.5466887486886596 0 0 0
31 3 10.91091983142286 6.299689215574445 1.5465662419161417 0 0 0
32 3 14.028331538365931 6.2996578665511755 1.5464440485064144 0 0 0
33 3 17.145765787437004 6.299673304843617 1.5462824705638756 0 0 0
34 3 20.26320189306873 6.299681009370537 1.546232650943563 0 0 0
35 3 23.38061845666106 6.299676025116994 1.546221109608059 0 0 0
36 3 26.498031073299458 6.299664064721039 1.5461669600554047 0 0 0
37 3 29.615643728544345 6.299688477090649 1.5458879068316682 0 0 0
38 3 32.733219657951835 6.299694740933169 1.5456953915793648 0 0 0
39 3 35.85080816915212 6.29968496569058 1.5455263076556152 0 0 0
40 3 38.96841243131859 6.299700102428248 1.5453576097245043 0 0 0
41 3 42.08603792517504 6.299688354618921 1.545292873130403 0 0 0
42 3 3.117427151023044 8.999538103893551 1.5466594670161444 0 0 0
43 3 6.234832573518595 8.999523483906513 1.546713376003175 0 0 0
44 3 9.35221244851825 8.999572181444718 1.5466282255287322 0 0 0
45 3 12.469627937287369 8.999524839557548 1.54651427151724 0 0 0
46 3 15.587050450631814 8.999536702957215 1.5463551881110587 0 0 0
47 3 18.70447299833628 8.999555730708245 1.5462488234275775 0 0 0
48 3 21.821911929740136 8.99953067957346 1.5462174592761768 0 0 0
49 3 24.939320198635333 8.999512686628922 1.5461438801412701 0 0 0
50 3 28.056814877982156 8.999570051824303 1.5460159132447389 0 0 0
51 3 31.17440777381432 8.999557624411073 1.545787403607603 0 0 0
52 3 34.292015573158835 8.999552813720348 1.545608075150034 0 0 0
53 3 37.40960390697023 8.999558325626374 1.5454375629833323 0 0 0
54 3 40.527242401491584 8.999564380641088 1.5453119811580132 0 0 0
55 3 1.558718874360572 11.699391825928094 1.5466357782566729 0 0 0
56 3 4.676132832593793 11.69939531172601 1.5466932628399541 0 0 0
57 3 7.793519442205632 11.699413559130747 1.54668874868842 0 0 0
58 3 10.910919831422238 11.699419979361855 1.5465662419156954 0 0 0
59 3 14.02833153836523 11.699388630338463 1.5464440485064705 0 0 0
60 3 17.145765787437938 11.699404068630654 1.5462824705640457 0 0 0
61 3 20.263201893068747 11.699411773157273 1.5462326509436057 0 0 0
62 3 23.380618456660297 11.699406788904035 1.5462211096082394 0 0 0
63 3 26.49803107329981 11.699394828508332 1.5461669600551613 0 0 0
64 3 29.61564372854428 11.69941924087777 1.5458879068316536 0 0 0
65 3 32.73321965795166 11.699425504720322 1.545695391579279 0 0 0
66 3 35.8508081691517 11.699415729478012 1.5455263076560748 0 0 0
67 3 38.96841243131882 11.699430866215364 1.5453576097247612 0 0 0
68 3 42.08603792517521 11.699419118405848 1.5452928731304847 0 0 0
69 3 3.11742715102412 14.399268867677103 1.5466594670132428 0 0 0
70 3 6.234832573519353 14.399254247693854 1.5467133760042961 0 0 0
71 3 9.352212448518163 14.399302945232106 1.5466282255287414 0 0 0
72 3 12.469627937286793 14.39925560334449 1.5465142715167373 0 0 0
73 3 15.587050450632134 14.399267466744748 1.5463551881112774 0 0 0
74 3 18.70447299833621 14.39928649449518 1.546248823427679 0 0 0
75 3 21.82191192973986 14.399261443360524 1.5462174592759224 0 0 0
76 3 24.939320198635162 14.399243450416012 1.5461438801417664 0 0 0
77 3 28.056814877982173 14.399300815611314 1.546015913244825 0 0 0
78 3 31.174407773814206 14.399288388198318 1.545787403607436 0 0 0
79 3 34.29201557315876 14.399283577507335 1.5456080751500247 0 0 0
80 3 37.40960390697026 14.399289089413646 1.545437562983808 0 0 0
81 3 40.52724240149134 14.39929514442814 1.5453119811577534 0 0 0
82 3 1.558718874362917 17.09912258971757 1.5466357782556726 0 0 0
83 3 4.6761328325946305 17.099126075512697 1.5466932628400618 0 0 0
84 3 7.793519442205639 17.099144322916153 1.5466887486889866 0 0 0
85 3 10.910919831420445 17.099150743148776 1.5465662419166613 0 0 0
86 3 14.028331538365348 17.099119394125697 1.546444048505719 0 0 0
87 3 17.14576578743808 17.099134832417718 1.546282470564348 0 0 0
88 3 20.26320189306846 17.099142536944196 1.5462326509437205 0 0 0
89 3 23.38061845666018 17.099137552691456 1.5462211096078693 0 0 0
90 3 26.498031073300044 17.09912559229551 1.5461669600555783 0 0 0
91 3 29.61564372854433 17.09915000466481 1.5458879068316833 0 0 0
92 3 32.733219657951494 17.099156268507343 1.5456953915793132 0 0 0
93 3 35.85080816915214 17.099146493264925 1.5455263076558479 0 0 0
94 3 38.9684124313186 17.09916163000231 1.545357609724876 0 0 0
95 3 42.08603792517466 17.09914988219289 1.5452928731304325 0 0 0
96 3 3.1174271510221825 19.798999631466895 1.5466594670142542 0 0 0
97 3 6.234832573518321 19.79898501148006 1.5467133760028169 0 0 0
98 3 9.352212448519213 19.79903370901767 1.5466282255284405 0 0 0
99 3 12.469627937287415 19.798986367131842 1.5465142715170537 0 0 0
100 3 15.58705045063232 19.798998230531392 1.5463551881111344 0 0 0
101 3 18.704472998336428 19.79901725828248 1.5462488234278446 0 0 0
102 3 21.821911929740306 19.798992207148082 1.5462174592759008 0 0 0
103 3 24.93932019863523 19.79897421420309 1.5461438801415204 0 0 0
104 3 28.05681487798203 19.799031579398488 1.546015913244924 0 0 0
105 3 31.174407773814348 19.799019151985306 1.545787403607276 0 0 0
106 3 34.29201557315876 19.799014341294267 1.5456080751496772 0 0 0
107 3 37.40960390697025 19.799019853200697 1.5454375629838515 0 0 0
108 3 40.527242401491364 19.799025908214894 1.5453119811578258 0 0 0
109 3 1.5587188743602296 22.498853353502323 1.5466357782588631 0 0 0
110 3 4.67613283259128 22.498856839301837 1.5466932628399832 0 0 0
111 3 7.793519442205137 22.49887508670353 1.5466887486878336 0 0 0
112 3 10.910919831422389 22.498881506935444 1.5465662419170552 0 0 0
113 3 14.028331538366063 22.498850157911946 1.5464440485059645 0 0 0
114 3 17.145765787437888 22.498865596204723 1.5462824705640488 0 0 0
115 3 20.263201893068715 22.498873300731614 1.5462326509436328 0 0 0
116 3 23.380618456660788 22.498868316478877 1.5462211096081968 0 0 0
117 3 26.498031073300044 22.498856356082428 1.5461669600554802 0 0 0
118 3 29.615643728544477 22.498880768451517 1.5458879068317202 0 0 0
119 3 32.7332196579512 22.498887032294387 1.5456953915792728 0 0 0
120 3 35.85080816915228 22.49887725705212 1.5455263076557697 0 0 0
121 3 38.96841243131846 22.498892393789347 1.545357609724444 0 0 0
122 3 42.08603792517497 22.498880645980407 1.5452928731304614 0 0 0
123 3 3.117427151022747 25.198730395252287 1.546659467014538 0 0 0
124 3 6.234832573516935 25.198715775268948 1.5467133760045118 0 0 0
125 3 9.352212448518388 25.19876447280498 1.546628225527712 0 0 0
126 3 12.46962793728756 25.19871713091863 1.5465142715175673 0 0 0
127 3 15.587050450632482 25.198728994318003 1.5463551881112376 0 0 0
128 3 18.70447299833621 25.198748022069445 1.5462488234275764 0 0 0
129 3 21.821911929740214 25.19872297093538 1.54621745927585 0 0 0
130 3 24.939320198635208 25.19870497799028 1.5461438801414784 0 0 0
131 3 28.056814877982156 25.198762343185322 1.5460159132448128 0 0 0
132 3 31.174407773814202 25.198749915771927 1.5457874036074615 0 0 0
133 3 34.29201557315888 25.198745105081226 1.5456080751501602 0 0 0
134 3 37.40960390697 25.19875061698759 1.545437562983912 0 0 0
135 3 40.52724240149156 25.19875667200195 1.545311981157807 0 0 0
136 3 1.5587188743570726 27.898584117288685 1.5466357782577747 0 0 0
137 3 4.676132832594628 27.898587603087382 1.5466932628401147 0 0 0
138 3 7.793519442204278 27.898605850491062 1.5466887486885976 0 0 0
139 3 10.910919831422989 27.898612270722573 1.5465662419162165 0 0 0
140 3 14.028331538365707 27.89858092169928 1.5464440485065418 0 0 0
141 3 17.145765787437462 27.898596359991632 1.5462824705642282 0 0 0
142 3 20.26320189306899 27.89860406451868 1.5462326509432975 0 0 0
143 3 23.380618456660216 27.898599080265388 1.546221109608093 0 0 0
144 3 26.498031073299536 27.89858711986942 1.5461669600552765 0 0 0
145 3 29.61564372854424 27.898611532238316 1.5458879068317846 0 0 0
146 3 32.73321965795172 27.89861779608119 1.5456953915794847 0 0 0
147 3 35.850808169152195 27.898608020838676 1.5455263076560122 0 0 0
148 3 38.9684124313183 27.898623157576314 1.5453576097248047 0 0 0
149 3 42.08603792517504 27.898611409767017 1.5452928731306725 0 0 0
150 3 3.1174271510217166 30.598461159040006 1.5466594670158473 0 0 0
151 3 6.234832573520174 30.598446539053544 1.5467133760032576 0 0 0
152 3 9.352212448519342 30.598495236592306 1.5466282255290271 0 0 0
153 3 12.469627937287324 30.598447894705924 1.5465142715163553 0 0 0
154 3 15.587050450631917 30.598459758105637 1.5463551881112814 0 0 0
155 3 18.704472998336254 30.598478785856003 1.5462488234275564 0 0 0
156 3 21.82191192974041 30.598453734721815 1.5462174592759117 0 0 0
157 3 24.93932019863542 30.598435741776626 1.546143880141625 0 0 0
158 3 28.05681487798181 30.598493106972263 1.5460159132448283 0 0 0
159 3 31.174407773814245 30.598480679559152 1.5457874036069803 0 0 0
160 3 34.29201557315887 30.598475868868395 1.545608075149565 0 0 0
161 3 37.40960390697041 30.598481380774636 1.5454375629837904 0 0 0
162 3 40.52724240149145 30.59848743578869 1.545311981157619 0 0 0
163 3 1.5587188743580427 33.29831488107699 1.5466357782568394 0 0 0
164 3 4.676132832592386 33.29831836687553 1.5466932628395527 0 0 0
165 3 7.793519442205754 33.29833661427811 1.5466887486880818 0 0 0
166 3 10.910919831422154 33.29834303450996 1.5465662419166357 0 0 0
167 3 14.028331538365721 33.29831168548665 1.5464440485060762 0 0 0
168 3 17.14576578743803 33.298327123778314 1.5462824705643934 0 0 0
169 3 20.263201893069063 33.29833482830475 1.546232650943892 0 0 0
170 3 23.380618456660066 33.298329844052176 1.5462211096080702 0 0 0
171 3 26.498031073299778 33.29831788365584 1.5461669600552783 0 0 0
172 3 29.615643728544292 33.2983422960256 1.5458879068319462 0 0 0
173 3 32.73321965795161 33.29834855986822 1.5456953915792422 0 0 0
174 3 35.85080816915232 33.29833878462556 1.5455263076559371 0 0 0
175 3 38.96841243131841 33.29835392136292 1.545357609724731 0 0 0
176 3 42.086037925175084 33.2983421735542 1.545292873130358 0 0 0
177 3 3.117427151021426 35.99819192282496 1.5466594670151959 0 0 0
178 3 6.234832573517803 35.99817730284195 1.5467133760046297 0 0 0
179 3 9.352212448519321 35.99822600037929 1.5466282255281498 0 0 0
180 3 12.4696279372875 35.99817865849298 1.546514271516561 0 0 0
181 3 15.587050450632223 35.9981905218931 1.54635518811112 0 0 0
182 3 18.70447299833672 35.99820954964289 1.5462488234278517 0 0 0
183 3 21.821911929739663 35.998184498509055 1.546217459275737 0 0 0
184 3 24.93932019863513 35.99816650556361 1.5461438801413834 0 0 0
185 3 28.056814877982124 35.99822387075919 1.546015913244847 0 0 0
186 3 31.17440777381408 35.99821144334575 1.5457874036074322 0 0 0
187 3 34.29201557315894 35.99820663265518 1.5456080751500991 0 0 0
188 3 37.40960390697009 35.998212144561485 1.5454375629839183 0 0 0
189 3 40.52724240149181 35.99821819957563 1.5453119811573854 0 0 0
190 3 1.5587188743570946 38.69804564486229 1.5466357782575573 0 0 0
191 3 4.676132832594566 38.6980491306611 1.5466932628403598 0 0 0
192 3 7.79351944220359 38.69806737806564 1.546688748689355 0 0 0
193 3 10.910919831422087 38.69807379829581 1.546566241916106 0 0 0
194 3 14.028331538366063 38.69804244927363 1.5464440485058784 0 0 0
195 3 17.145765787438204 38.69805788756558 1.5462824705646463 0 0 0
196 3 20.26320189306819 38.69806559209212 1.5462326509435358 0 0 0
197 3 23.38061845665989 38.69806060783897 1.546221109608158 0 0 0
198 3 26.49803107329959 38.69804864744292 1.546166960055534 0 0 0
199 3 29.615643728544217 38.69807305981221 1.5458879068317117 0 0 0
200 3 32.73321965795173 38.69807932365496 1.5456953915797553 0 0 0
201 3 35.8508081691521 38.698069548412434 1.5455263076560593 0 0 0
202 3 38.96841243131863 38.69808468515006 1.5453576097248687 0 0 0
203 3 42.086037925175 38.69807293734081 1.5452928731303952 0 0 0
204 3 3.1174271510242777 41.39792268661286 1.54665946701597 0 0 0
205 3 6.234832573517922 41.397908066628275 1.546713376003395 0 0 0
206 3 9.352212448518124 41.39795676416587 1.546628225529298 0 0 0
207 3 12.469627937287008 41.39790942227922 1.5465142715168705 0 0 0
208 3 15.587050450632143 41.39792128568028 1.5463551881111484 0 0 0
209 3 18.704472998336584 41.39794031343033 1.546248823427284 0 0 0
210 3 21.821911929740097 41.3979152622951 1.5462174592758482 0 0 0
211 3 24.939320198635365 41.39789726935064 1.546143880141511 0 0 0
212 3 28.056814877981893 41.39795463454618 1.5460159132446323 0 0 0
213 3 31.17440777381431 41.39794220713288 1.545787403607184 0 0 0
214 3 34.292015573158466 41.397937396442245 1.545608075149706 0 0 0
215 3 37.40960390697043 41.397942908348575 1.5454375629838362 0 0 0
216 3 40.527242401491655 41.39794896336284 1.5453119811575327 0 0 0
219 1 3.1174012244615477 1.7999159398652382 3.1056472763951612 0 0 0
221 1 6.234827144011823 1.7999010932722497 3.105694581286715 0 0 0
222 1 9.352276439567085 1.7999473106858712 3.10561579929427 0 0 0
224 1 12.469688358783166 1.799903668018112 3.1055019404075157 0 0 0
226 1 15.587126590617785 1.7999113482042095 3.1053460966576414 0 0 0
228 1 18.704506639628754 1.7999283544651967 3.1052299746325622 0 0 0
231 1 21.821917304119633 1.7999162550484866 3.105212876150898 0 0 0
232 2 26.49830700143668 0.8999534742603617 4.663917695275084 0 0 0
233 1 24.939354369775643 1.79993718641743 3.1051716510158505 0 0 0
234 2 29.615847746151736 0.8999516964624682 4.663707561038163 0 0 0
235 1 28.05696415192424 1.7998980853628086 3.104906354801126 0 0 0
236 1 31.174527398274332 1.7999067301395628 3.1046977302336476 0 0 0
237 2 32.733412082659335 0.8999527581719646 4.663506279769352 0 0 0
238 1 34.2921021214675 1.799908449054401 3.104516115219963 0 0 0
239 2 35.850986500775164 0.8999624648694478 4.663321056861966 0 0 0
240 1 37.40969003713443 1.799905857748214 3.104333635596874 0 0 0
241 2 38.968538667838395 0.8999580789760372 4.663175101938716 0 0 0
242 1 40.52726886544041 1.7999118751306988 3.1042180371110173 0 0 0
243 2 42.08608999420328 0.8999594090500096 4.663095205800046 0 0 0
244 1 1.5586953641258918 4.4997693208604685 3.1056246771293243 0 0 0
245 1 4.676111024747456 4.4997720131611265 3.1056756560058205 0 0 0
247 1 7.793552888215438 4.499791794002878 3.1056745394970324 0 0 0
250 1 10.910984759429946 4.4997993318047875 3.105556920033792 0 0 0
252 1 14.028412605656765 4.499758477769375 3.1054281261064633 0 0 0
254 1 17.145811514800005 4.499792728115116 3.1052844272142317 0 0 0
256 1 20.263215898710225 4.499782846788201 3.1052117371051717 0 0 0
257 1 23.3806530897894 4.499767937936457 3.1051791954118313 0 0 0
259 1 26.49810393153189 4.499720597623763 3.105062968044721 0 0 0
261 1 29.615730254663216 4.4997776997372725 3.1047967241451886 0 0 0
262 2 28.05707041716794 3.5998090674473953 4.663805614415037 0 0 0
263 2 31.174628678161888 3.5998244471101946 4.663598327274717 0 0 0
264 1 32.73331126656564 4.499772112782368 3.1045971310001166 0 0 0
265 2 34.29218797076111 3.5998303674024608 4.663415575314479 0 0 0
266 1 35.85089249825895 4.499768557446197 3.1044267347804313 0 0 0
267 2 37.40976070270211 3.599817535950728 4.663241625199893 0 0 0
268 1 38.96848453723726 4.499773680372064 3.1042661580055193 0 0 0
269 2 40.52732396982243 3.599825309800241 4.663130170052009 0 0 0
270 1 42.086066144665125 4.49977178571922 3.104194786729818 0 0 0
273 1 3.1174012244658713 7.199646703654127 3.1056472763985328 0 0 0
275 1 6.23482714401085 7.199631857059064 3.1056945812849768 0 0 0
276 1 9.352276439568437 7.199678074472836 3.105615799294586 0 0 0
278 1 12.469688358784492 7.199634431804942 3.1055019404080264 0 0 0
280 1 15.587126590617345 7.19964211199067 3.105346096657002 0 0 0
282 1 18.704506639628246 7.199659118252574 3.1052299746326186 0 0 0
285 1 21.821917304119374 7.199647018835351 3.1052128761509694 0 0 0
286 2 26.498307001437087 6.299684238046849 4.663917695274609 0 0 0
287 1 24.939354369775494 7.1996679502043905 3.1051716510158482 0 0 0
288 2 29.615847746151562 6.299682460249202 4.663707561038183 0 0 0
289 1 28.05696415192474 7.199628849149694 3.1049063548011016 0 0 0
290 1 31.174527398274474 7.199637493926674 3.104697730233672 0 0 0
291 2 32.73341208265945 6.299683521958891 4.663506279769548 0 0 0
292 1 34.292102121467096 7.19963921284174 3.1045161152201413 0 0 0
293 2 35.85098650077517 6.299693228656393 4.663321056862479 0 0 0
294 1 37.409690037134546 7.199636621535232 3.1043336355970546 0 0 0
295 2 38.96853866783819 6.299688842763278 4.663175101938899 0 0 0
296 1 40.52726886544017 7.199642638917715 3.1042180371109787 0 0 0
297 2 42.08608999420341 6.299690172836425 4.663095205799856 0 0 0
298 1 1.5586953641309556 9.899500084648606 3.1056246771275724 0 0 0
299 1 4.676111024745843 9.899502776947985 3.105675656005145 0 0 0
301 1 7.793552888217215 9.899522557791437 3.105674539496873 0 0 0
304 1 10.910984759429445 9.899530095592251 3.105556920034181 0 0 0
306 1 14.028412605656946 9.89948924155607 3.105428126106138 0 0 0
308 1 17.145811514800545 9.899523491902018 3.105284427214043 0 0 0
310 1 20.26321589871005 9.899513610575609 3.105211737105387 0 0 0
311 1 23.380653089789604 9.899498701724044 3.1051791954119032 0 0 0
313 1 26.498103931531805 9.899451361410849 3.1050629680444986 0 0 0
315 1 29.615730254663667 9.899508463523972 3.104796724145239 0 0 0
316 2 28.057070417168063 8.999539831234266 4.663805614414962 0 0 0
317 2 31.174628678162275 8.999555210897153 4.663598327274865 0 0 0
318 1 32.7333112665656 9.899502876569175 3.1045971310001264 0 0 0
319 2 34.29218797076099 8.999561131189491 4.663415575315144 0 0 0
320 1 35.85089249825883 9.899499321233078 3.1044267347804624 0 0 0
321 2 37.40976070270218 8.999548299737626 4.663241625200916 0 0 0
322 1 38.968484537237124 9.89950444415879 3.1042661580055855 0 0 0
323 2 40.52732396982202 8.999556073587392 4.663130170052412 0 0 0
324 1 42.08606614466514 9.899502549506007 3.1041947867298143 0 0 0
327 1 3.1174012244601395 12.59937746744108 3.1056472763968643 0 0 0
329 1 6.23482714401167 12.599362620845419 3.1056945812856522 0 0 0
330 1 9.352276439567724 12.59940883825928 3.1056157992942746 0 0 0
332 1 12.469688358783484 12.599365195591787 3.1055019404078292 0 0 0
334 1 15.587126590618201 12.59937287577767 3.1053460966571467 0 0 0
336 1 18.704506639628885 12.599389882039926 3.1052299746327687 0 0 0
339 1 21.821917304119687 12.599377782622765 3.1052128761510547 0 0 0
340 2 26.498307001436867 11.699415001834051 4.663917695274703 0 0 0
341 1 24.939354369775575 12.599398713991485 3.105171651015771 0 0 0
342 2 29.615847746151314 11.699413224036212 4.663707561038224 0 0 0
343 1 28.056964151924728 12.599359612936759 3.1049063548010833 0 0 0
344 1 31.174527398274602 12.599368257713445 3.104697730233679 0 0 0
345 2 32.733412082659875 11.69941428574573 4.663506279769684 0 0 0
346 1 34.29210212146713 12.599369976628692 3.1045161152201057 0 0 0
347 2 35.85098650077507 11.699423992443236 4.663321056862085 0 0 0
348 1 37.40969003713453 12.59936738532217 3.1043336355969764 0 0 0
349 2 38.9685386678381 11.699419606550029 4.663175101938876 0 0 0
350 1 40.527268865440526 12.599373402704742 3.104218037110946 0 0 0
351 2 42.08608999420323 11.699420936623506 4.663095205799703 0 0 0
352 1 1.5586953641227779 15.299230848433188 3.1056246771272025 0 0 0
353 1 4.67611102474558 15.299233540735381 3.1056756560054306 0 0 0
355 1 7.793552888216919 15.299253321576323 3.1056745394975476 0 0 0
358 1 10.910984759429988 15.299260859378846 3.1055569200341733 0 0 0
360 1 14.028412605656426 15.299220005343432 3.1054281261055374 0 0 0
362 1 17.145811514800695 15.299254255689274 3.105284427214234 0 0 0
364 1 20.2632158987107 15.299244374363168 3.10521173710536 0 0 0
365 1 23.380653089789565 15.299229465510903 3.1051791954118215 0 0 0
367 1 26.498103931531897 15.299182125197872 3.105062968044541 0 0 0
369 1 29.615730254663465 15.299239227311046 3.104796724145309 0 0 0
370 2 28.057070417167857 14.399270595021397 4.6638056144149544 0 0 0
371 2 31.174628678162218 14.399285974684354 4.663598327274924 0 0 0
372 1 32.733311266565806 15.299233640356325 3.1045971310001113 0 0 0
373 2 34.29218797076111 14.399291894976464 4.6634155753149775 0 0 0
374 1 35.85089249825883 15.299230085020326 3.1044267347803896 0 0 0
375 2 37.40976070270224 14.399279063524721 4.663241625200303 0 0 0
376 1 38.968484537237266 15.299235207946055 3.1042661580055104 0 0 0
377 2 40.527323969822 14.399286837374436 4.66313017005217 0 0 0
378 1 42.086066144665175 15.299233313293197 3.104194786729767 0 0 0
381 1 3.117401224462549 17.999108231228053 3.1056472763967506 0 0 0
383 1 6.234827144011895 17.999093384632722 3.105694581286391 0 0 0
384 1 9.352276439567627 17.9991396020465 3.105615799295153 0 0 0
386 1 12.469688358783118 17.999095959378508 3.1055019404072506 0 0 0
388 1 15.5871265906178 17.999103639564854 3.1053460966569877 0 0 0
390 1 18.70450663962908 17.9991206458273 3.105229974633145 0 0 0
393 1 21.82191730411966 17.999108546409396 3.1052128761509232 0 0 0
394 2 26.49830700143676 17.099145765621127 4.663917695274483 0 0 0
395 1 24.93935436977531 17.999129477778357 3.1051716510159806 0 0 0
396 2 29.615847746151537 17.099143987823602 4.663707561038275 0 0 0
397 1 28.056964151924596 17.999090376723746 3.104906354801147 0 0 0
398 1 31.174527398274712 17.999099021500623 3.1046977302336063 0 0 0
399 2 32.733412082659655 17.099145049532922 4.663506279769497 0 0 0
400 1 34.292102121467074 17.999100740415823 3.1045161152201044 0 0 0
401 2 35.850986500775484 17.09915475623029 4.663321056862103 0 0 0
402 1 37.4096900371345 17.99909814910922 3.104333635596958 0 0 0
403 2 38.96853866783815 17.099150370337227 4.663175101938719 0 0 0
404 1 40.52726886544062 17.999104166491833 3.1042180371109787 0 0 0
405 2 42.08608999420327 17.099151700410665 4.663095205799857 0 0 0
406 1 1.5586953641281869 20.698961612224007 3.105624677128778 0 0 0
407 1 4.676111024744458 20.698964304522445 3.1056756560035312 0 0 0
409 1 7.793552888216976 20.698984085364234 3.105674539496376 0 0 0
412 1 10.91098475943039 20.6989916231665 3.1055569200342408 0 0 0
414 1 14.028412605656806 20.698950769130356 3.1054281261059806 0 0 0
416 1 17.145811514800105 20.698985019476446 3.105284427214149 0 0 0
418 1 20.263215898710303 20.698975138150058 3.1052117371054293 0 0 0
419 1 23.3806530897893 20.69896022929717 3.105179195411878 0 0 0
421 1 26.498103931532015 20.698912888984985 3.1050629680446273 0 0 0
423 1 29.61573025466352 20.698969991098142 3.104796724145204 0 0 0
424 2 28.05707041716798 19.79900135880832 4.66380561441485 0 0 0
425 2 31.174628678162023 19.799016738471444 4.663598327274879 0 0 0
426 1 32.733311266565856 20.69896440414294 3.1045971310000042 0 0 0
427 2 34.292187970761056 19.79902265876376 4.663415575315311 0 0 0
428 1 35.85089249825854 20.698960848807143 3.104426734780512 0 0 0
429 2 37.40976070270228 19.79900982731153 4.663241625200434 0 0 0
430 1 38.968484537237174 20.698965971732775 3.104266158005547 0 0 0
431 2 40.527323969822 19.79901760116137 4.663130170052357 0 0 0
432 1 42.08606614466548 20.698964077080028 3.104194786729853 0 0 0
435 1 3.1174012244605915 23.39883899501327 3.105647276397112 0 0 0
437 1 6.234827144011789 23.398824148421102 3.1056945812863708 0 0 0
438 1 9.352276439566912 23.398870365833474 3.1056157992939273 0 0 0
440 1 12.469688358784554 23.398826723165946 3.105501940408293 0 0 0
442 1 15.587126590618075 23.398834403351746 3.1053460966569277 0 0 0
444 1 18.704506639628438 23.398851409614466 3.105229974632856 0 0 0
447 1 21.82191730411959 23.398839310196216 3.105212876150796 0 0 0
448 2 26.498307001436885 22.498876529408104 4.663917695274761 0 0 0
449 1 24.93935436977512 23.39886024156516 3.105171651015828 0 0 0
450 2 29.61584774615188 22.49887475161049 4.663707561038137 0 0 0
451 1 28.056964151924564 23.398821140511004 3.1049063548010984 0 0 0
452 1 31.174527398274115 23.398829785287784 3.1046977302337035 0 0 0
453 2 32.73341208265954 22.498875813319938 4.663506279769486 0 0 0
454 1 34.29210212146709 23.398831504202757 3.104516115220027 0 0 0
455 2 35.85098650077505 22.498885520017133 4.663321056862413 0 0 0
456 1 37.40969003713449 23.39882891289612 3.1043336355970874 0 0 0
457 2 38.968538667838125 22.49888113412422 4.6631751019390455 0 0 0
458 1 40.527268865440575 23.398834930278806 3.1042180371109596 0 0 0
459 2 42.08608999420352 22.49888246419764 4.663095205799821 0 0 0
460 1 1.5586953641235273 26.098692376009524 3.1056246771277873 0 0 0
461 1 4.676111024747278 26.098695068309357 3.105675656006582 0 0 0
463 1 7.793552888215675 26.098714849150465 3.105674539496984 0 0 0
466 1 10.910984759429022 26.098722386952925 3.1055569200336732 0 0 0
468 1 14.028412605657552 26.0986815329176 3.1054281261063195 0 0 0
470 1 17.1458115148008 26.098715783263252 3.1052844272143556 0 0 0
472 1 20.26321589871018 26.098705901936533 3.1052117371051655 0 0 0
473 1 23.38065308978937 26.098690993084805 3.1051791954115915 0 0 0
475 1 26.498103931531823 26.09864365277204 3.105062968044859 0 0 0
477 1 29.615730254663642 26.098700754885083 3.104796724145207 0 0 0
478 2 28.05707041716823 25.198732122595498 4.66380561441479 0 0 0
479 2 31.17462867816198 25.198747502258225 4.663598327274971 0 0 0
480 1 32.733311266565764 26.09869516793037 3.1045971310001463 0 0 0
481 2 34.292187970761006 25.198753422550666 4.66341557531497 0 0 0
482 1 35.85089249825849 26.098691612594422 3.104426734780454 0 0 0
483 2 37.40976070270211 25.198740591098424 4.6632416252002695 0 0 0
484 1 38.96848453723762 26.098696735519724 3.104266158005473 0 0 0
485 2 40.52732396982213 25.198748364948454 4.663130170052353 0 0 0
486 1 42.0860661446651 26.098694840867086 3.104194786729899 0 0 0
489 1 3.117401224463627 28.798569758802508 3.1056472763995715 0 0 0
491 1 6.234827144012881 28.798554912207933 3.1056945812858987 0 0 0
492 1 9.352276439567651 28.7986011296193 3.1056157992944775 0 0 0
494 1 12.469688358783557 28.798557486952674 3.1055019404078767 0 0 0
496 1 15.58712659061805 28.798565167138435 3.1053460966574553 0 0 0
498 1 18.7045066396289 28.798582173400924 3.1052299746326253 0 0 0
501 1 21.821917304119328 28.798570073983207 3.105212876150806 0 0 0
502 2 26.498307001436974 27.89860729319504 4.6639176952750425 0 0 0
503 1 24.939354369775653 28.798591005352804 3.105171651015624 0 0 0
504 2 29.615847746151548 27.898605515397374 4.663707561038256 0 0 0
505 1 28.05696415192449 28.7985519042976 3.104906354801168 0 0 0
506 1 31.174527398274527 28.798560549074885 3.104697730233683 0 0 0
507 2 32.733412082659335 27.898606577106577 4.6635062797693365 0 0 0
508 1 34.292102121467124 28.79856226798982 3.104516115220032 0 0 0
509 2 35.85098650077513 27.898616283803964 4.663321056862096 0 0 0
510 1 37.409690037134126 28.798559676683077 3.1043336355970155 0 0 0
511 2 38.9685386678383 27.898611897911145 4.663175101938619 0 0 0
512 1 40.52726886544076 28.798565694065562 3.1042180371109787 0 0 0
513 2 42.08608999420302 27.89861322798451 4.663095205799718 0 0 0
514 1 1.558695364129417 31.49842313979635 3.1056246771286613 0 0 0
515 1 4.676111024744012 31.49842583209475 3.105675656005097 0 0 0
517 1 7.7935528882170715 31.49844561293728 3.105674539497209 0 0 0
520 1 10.910984759430368 31.49845315073978 3.1055569200339015 0 0 0
519 1 14.028412605656552 31.498412296704508 3.1054281261054797 0 0 0
518 1 17.14581151480026 31.498446547050698 3.1052844272140883 0 0 0
516 1 20.263215898710683 31.498436665724295 3.1052117371053964 0 0 0
500 1 23.380653089788915 31.498421756871647 3.10517919541191 0 0 0
499 1 26.498103931531816 31.498374416558608 3.105062968044542 0 0 0
495 2 28.05707041716795 30.59846288638218 4.663805614415043 0 0 0
497 1 29.615730254663678 31.498431518671648 3.1047967241452126 0 0 0
493 2 31.1746286781619 30.598478266045312 4.6635983272754284 0 0 0
488 2 34.29218797076096 30.598484186337526 4.6634155753153825 0 0 0
490 1 32.733311266565806 31.49842593171672 3.1045971310000153 0 0 0
476 2 37.40976070270236 30.598471354885557 4.663241625200188 0 0 0
487 1 35.85089249825844 31.498422376380855 3.104426734780414 0 0 0
471 2 40.52732396982188 30.598479128735548 4.663130170052566 0 0 0