LAMMPS data file via write_data, version 2 Aug 2023, timestep = 633, units = metal

47168 atoms
3 atom types

0 1558.769211007723 xlo xhi
0 86.39577339190052 ylo yhi
0 50 zlo zhi
0 0 0 xy xz yz

Masses

1 95.94
2 32.065
3 32.065

Atoms # atomic

1 3 1.5586940975676733 0.8999202515881346 1.5466910996598955 0 0 0
2 3 4.676152227306671 0.8999694980341424 1.5464100152575873 0 0 0
3 3 7.793601230916531 0.899939385393981 1.5462117318162136 0 0 0
4 3 10.911048404538835 0.8999322537443785 1.5459511202313394 0 0 0
5 3 14.028689749745988 0.8999622013071739 1.5456162157022204 0 0 0
6 3 17.146309733720912 0.8999602055500963 1.5454682670652713 0 0 0
7 3 20.263912763184916 0.899965671128555 1.5453544862500252 0 0 0
8 3 23.381530617180267 0.8999646722330888 1.5453577655656365 0 0 0
9 3 26.49909331810676 0.8999545039272159 1.5454333582588802 0 0 0
10 3 29.616616235633213 0.899955656203107 1.5454526352423645 0 0 0
11 3 3.1174032183735334 3.5998379901412676 1.5465470676731103 0 0 0
12 3 6.234887759720609 3.5998336824571524 1.5463055349986587 0 0 0
13 3 9.352311982762581 3.5998069836268254 1.546042681786963 0 0 0
14 3 12.46985507858336 3.5998451024522753 1.545769285225723 0 0 0
15 3 15.58749617674647 3.599830592964359 1.545542164598598 0 0 0
16 3 18.7051002250676 3.599833050079314 1.545402221103107 0 0 0
17 3 21.82271676305776 3.5998347344541535 1.5453393123807602 0 0 0
18 3 24.94032117776263 3.5998270910336405 1.5453969230610691 0 0 0
19 3 28.0578542180607 3.5998218731480556 1.545451708501033 0 0 0
20 3 31.175383668940068 3.599824653089541 1.545445928701411 0 0 0
21 3 1.5586940975669539 6.2996560885820925 1.5466910996601821 0 0 0
22 3 4.676152227307014 6.299705335027628 1.546410015258068 0 0 0
23 3 7.793601230915946 6.299675222387652 1.5462117318167696 0 0 0
24 3 10.911048404539189 6.29966809073797 1.545951120231494 0 0 0
25 3 14.028689749745743 6.299698038300672 1.5456162157014997 0 0 0
26 3 17.146309733720912 6.29969604254284 1.5454682670668907 0 0 0
27 3 20.263912763184898 6.299701508117887 1.545354486254712 0 0 0
28 3 23.381530617180875 6.299700509227705 1.545357765566754 0 0 0
29 3 26.499093318107576 6.299690340921053 1.5454333582592432 0 0 0
30 3 29.616616235633586 6.299691493195086 1.5454526352450035 0 0 0
31 3 3.117403218373344 8.99957382713593 1.546547067673219 0 0 0
32 3 6.234887759720657 8.9995695194509 1.546305534998665 0 0 0
33 3 9.352311982762753 8.999542820621064 1.5460426817866133 0 0 0
34 3 12.469855078583416 8.999580939446338 1.545769285225715 0 0 0
35 3 15.587496176745004 8.999566429957337 1.545542164597884 0 0 0
36 3 18.70510022506643 8.999568887073229 1.5454022211041616 0 0 0
37 3 21.822716763057723 8.999570571447947 1.5453393123806654 0 0 0
38 3 24.94032117776173 8.999562928027467 1.5453969230607154 0 0 0
39 3 28.057854218060328 8.999557710142273 1.5454517085006334 0 0 0
40 3 31.175383668939933 8.999560490083876 1.5454459287015792 0 0 0
41 3 1.5586940975669412 11.699391925575815 1.5466910996597316 0 0 0
42 3 4.676152227306327 11.699441172021567 1.5464100152576188 0 0 0
43 3 7.793601230916057 11.699411059381307 1.5462117318169355 0 0 0
44 3 10.9110484045395 11.699403927731813 1.5459511202309308 0 0 0
45 3 14.028689749745817 11.699433875295153 1.545616215702345 0 0 0
46 3 17.14630973372098 11.69943187953692 1.5454682670677231 0 0 0
47 3 20.263912763184774 11.699437345111741 1.5453544862548196 0 0 0
48 3 23.381530617180946 11.699436346221528 1.5453577655663029 0 0 0
49 3 26.499093318106965 11.69942617791404 1.5454333582591493 0 0 0
50 3 29.61661623563346 11.699427330188886 1.5454526352453453 0 0 0
51 3 3.1174032183728104 14.399309664129719 1.5465470676739947 0 0 0
52 3 6.234887759720454 14.399305356444637 1.5463055349988808 0 0 0
53 3 9.352311982762783 14.39927865761463 1.546042681786412 0 0 0
54 3 12.469855078583448 14.3993167764409 1.545769285225531 0 0 0
55 3 15.587496176746194 14.399302266952702 1.5455421645987322 0 0 0
56 3 18.705100225066445 14.399304724067477 1.5454022211029323 0 0 0
57 3 21.822716763057088 14.399306408441317 1.5453393123807182 0 0 0
58 3 24.940321177761803 14.3992987650214 1.5453969230612814 0 0 0
59 3 28.057854218060672 14.399293547135768 1.5454517085008057 0 0 0
60 3 31.17538366894042 14.399296327077433 1.5454459287021245 0 0 0
61 3 1.5586940975673207 17.099127762568923 1.5466910996628747 0 0 0
62 3 4.676152227306194 17.09917700901561 1.5464100152577887 0 0 0
63 3 7.793601230916116 17.09914689637538 1.546211731817161 0 0 0
64 3 10.911048404539494 17.09913976472583 1.5459511202313736 0 0 0
65 3 14.02868974974606 17.0991697122891 1.5456162157011033 0 0 0
66 3 17.146309733720653 17.0991677165319 1.5454682670665398 0 0 0
67 3 20.26391276318529 17.099173182105176 1.5453544862553088 0 0 0
68 3 23.381530617180257 17.099172183215266 1.5453577655668467 0 0 0
69 3 26.49909331810745 17.09916201490773 1.5454333582594608 0 0 0
70 3 29.616616235634 17.09916316718239 1.5454526352439206 0 0 0
71 3 3.1174032183729325 19.799045501122695 1.5465470676728905 0 0 0
72 3 6.234887759720237 19.799041193438402 1.5463055349979231 0 0 0
73 3 9.352311982762838 19.79901449460842 1.5460426817867703 0 0 0
74 3 12.469855078583251 19.799052613434526 1.5457692852257792 0 0 0
75 3 15.587496176745345 19.79903810394577 1.545542164597868 0 0 0
76 3 18.705100225066403 19.79904056106027 1.5454022211031193 0 0 0
77 3 21.822716763056643 19.799042245435725 1.5453393123794954 0 0 0
78 3 24.940321177762847 19.799034602014657 1.545396923061288 0 0 0
79 3 28.05785421806056 19.79902938412842 1.545451708500647 0 0 0
80 3 31.175383668939695 19.799032164071328 1.5454459287001785 0 0 0
81 3 1.5586940975659578 22.498863599563606 1.5466910996632417 0 0 0
82 3 4.676152227306597 22.498912846009503 1.54641001525919 0 0 0
83 3 7.793601230915797 22.498882733369207 1.546211731816659 0 0 0
84 3 10.911048404538962 22.49887560171948 1.5459511202304514 0 0 0
85 3 14.028689749746043 22.498905549282508 1.5456162157013793 0 0 0
86 3 17.146309733721466 22.498903553523565 1.5454682670669022 0 0 0
87 3 20.26391276318601 22.498909019099123 1.5453544862557833 0 0 0
88 3 23.38153061718166 22.49890802020705 1.5453577655665742 0 0 0
89 3 26.499093318107608 22.49889785190227 1.5454333582589408 0 0 0
90 3 29.616616235632033 22.49889900417534 1.5454526352451166 0 0 0
91 3 3.1174032183733402 25.198781338115737 1.5465470676718767 0 0 0
92 3 6.2348877597205155 25.19877703043168 1.546305534998587 0 0 0
93 3 9.352311982762643 25.198750331601772 1.5460426817854258 0 0 0
94 3 12.469855078583738 25.198788450426214 1.5457692852252665 0 0 0
95 3 15.587496176746598 25.198773940939567 1.5455421645997265 0 0 0
96 3 18.705100225065866 25.198776398054903 1.5454022211039333 0 0 0
97 3 21.822716763057464 25.198778082429182 1.545339312380657 0 0 0
98 3 24.940321177761845 25.198770439007834 1.545396923060952 0 0 0
99 3 28.057854218061333 25.19876522112418 1.54545170849979 0 0 0
100 3 31.175383668942096 25.19876800106484 1.545445928704024 0 0 0
101 3 1.5586940975672294 27.898599436557546 1.5466910996606724 0 0 0
102 3 4.6761522273066065 27.898648683002882 1.5464100152586264 0 0 0
103 3 7.793601230916376 27.89861857036294 1.546211731817185 0 0 0
104 3 10.9110484045402 27.898611438711914 1.5459511202326301 0 0 0
105 3 14.028689749745093 27.898641386275063 1.5456162157013595 0 0 0
106 3 17.14630973372123 27.898639390519584 1.5454682670649371 0 0 0
107 3 20.26391276318544 27.89864485609243 1.5453544862560613 0 0 0
108 3 23.38153061718194 27.89864385720171 1.5453577655656638 0 0 0
109 3 26.4990933181077 27.898633688894087 1.5454333582595194 0 0 0
110 3 29.616616235633163 27.898634841169432 1.5454526352434652 0 0 0
111 3 3.1174032183732123 30.59851717511066 1.5465470676734867 0 0 0
112 3 6.234887759720719 30.598512867425857 1.5463055349984653 0 0 0
113 3 9.352311982762593 30.59848616859581 1.5460426817870399 0 0 0
114 3 12.469855078583059 30.598524287422926 1.5457692852260116 0 0 0
115 3 15.587496176746013 30.598509777930673 1.5455421645984007 0 0 0
116 3 18.705100225066403 30.598512235048137 1.54540222110258 0 0 0
117 3 21.822716763057908 30.598513919422246 1.545339312381251 0 0 0
118 3 24.94032117776195 30.598506276001718 1.5453969230606583 0 0 0
119 3 28.057854218061706 30.598501058117037 1.545451708502532 0 0 0
120 3 31.17538366894003 30.598503838058548 1.5454459287023425 0 0 0
121 3 1.5586940975672616 33.29833527355086 1.546691099659658 0 0 0
122 3 4.676152227306049 33.29838451999698 1.5464100152580473 0 0 0
123 3 7.793601230915897 33.29835440735691 1.5462117318169313 0 0 0
124 3 10.911048404539217 33.29834727570805 1.545951120231136 0 0 0
125 3 14.028689749745693 33.298377223269036 1.545616215701764 0 0 0
126 3 17.146309733721 33.29837522751035 1.545468267067079 0 0 0
127 3 20.26391276318482 33.298380693086486 1.5453544862557989 0 0 0
128 3 23.381530617180687 33.298379694195205 1.5453577655660207 0 0 0
129 3 26.499093318107306 33.29836952588744 1.545433358258237 0 0 0
130 3 29.616616235633835 33.29837067816442 1.5454526352434765 0 0 0
131 3 3.1174032183729494 35.998253012104485 1.5465470676742379 0 0 0
132 3 6.234887759720371 35.99824870441957 1.5463055349977635 0 0 0
133 3 9.352311982762437 35.99822200558955 1.5460426817854385 0 0 0
134 3 12.469855078583846 35.998260124416184 1.5457692852267713 0 0 0
135 3 15.587496176744438 35.99824561492522 1.545542164598378 0 0 0
136 3 18.705100225067486 35.99824807204176 1.545402221103802 0 0 0
137 3 21.822716763057215 35.99824975641727 1.5453393123808676 0 0 0
138 3 24.94032117776261 35.99824211299542 1.5453969230640554 0 0 0
139 3 28.057854218060992 35.99823689510949 1.545451708500884 0 0 0
140 3 31.175383668940718 35.99823967505135 1.5454459287011069 0 0 0
141 3 1.558694097566862 38.698071110543964 1.5466910996612504 0 0 0
142 3 4.676152227306911 38.69812035699048 1.5464100152588014 0 0 0
143 3 7.793601230915676 38.69809024435071 1.546211731817427 0 0 0
144 3 10.911048404539404 38.69808311270158 1.5459511202314202 0 0 0
145 3 14.02868974974678 38.698113060265705 1.545616215701053 0 0 0
146 3 17.146309733720596 38.69811106450296 1.5454682670671986 0 0 0
147 3 20.263912763185537 38.698116530081855 1.545354486255217 0 0 0
148 3 23.381530617181625 38.69811553118905 1.5453577655632067 0 0 0
149 3 26.499093318106976 38.69810536288152 1.5454333582575097 0 0 0
150 3 29.616616235633867 38.69810651515559 1.5454526352452782 0 0 0
151 3 3.117403218372689 41.39798884909785 1.5465470676737176 0 0 0
152 3 6.2348877597205234 41.39798454141292 1.5463055349985797 0 0 0
153 3 9.352311982762807 41.39795784258369 1.5460426817861668 0 0 0
154 3 12.469855078581471 41.397995961408306 1.5457692852250413 0 0 0
155 3 15.587496176746106 41.397981451918376 1.5455421645956897 0 0 0
156 3 18.70510022506643 41.397983909033165 1.545402221101896 0 0 0
157 3 21.82271676305718 41.39798559340848 1.5453393123807118 0 0 0
158 3 24.940321177763156 41.39797794998774 1.5453969230623914 0 0 0
159 3 28.057854218059667 41.397972732102964 1.5454517085008788 0 0 0
160 3 31.175383668940803 41.39797551204477 1.545445928703157 0 0 0
163 1 3.1175487687461767 1.7999342099287996 3.1055244483886946 0 0 0
165 1 6.234979984332496 1.7999386082582514 3.1052884972730417 0 0 0
166 1 9.35244541310653 1.7999385603212643 3.105044955392546 0 0 0
167 2 10.911440625993265 0.8999509935784598 4.663711869137468 0 0 0
168 1 12.470023731836672 1.7999100568046034 3.104652038683323 0 0 0
169 2 14.028892125772565 0.8999682517485247 4.663450099256973 0 0 0
170 1 15.587577398352607 1.7999089579627385 3.1044344508973065 0 0 0
171 2 17.146436802756966 0.8999557716135553 4.663274857747161 0 0 0
172 1 18.705157702467503 1.7999123047133196 3.104312911523942 0 0 0
173 2 20.263968263687556 0.899957653948474 4.663169426768304 0 0 0
174 2 23.381473738448953 0.8999551069842632 4.663171005917804 0 0 0
175 1 21.822720900847962 1.7999122442034377 3.104251542358249 0 0 0
176 2 26.499040333840714 0.899964082046864 4.663247095027397 0 0 0
177 1 24.940284986429344 1.7999112814036993 3.104301016173924 0 0 0
178 2 29.61662076361018 0.8999570422712905 4.663268608119012 0 0 0
179 1 28.057844444176677 1.799911458550823 3.1043594138946715 0 0 0
180 1 31.175388462181623 1.7999121415091015 3.1043543448286317 0 0 0
181 1 1.558785245393566 4.499754919167496 3.1056723086421125 0 0 0
182 1 4.6762655366085655 4.4998068286200565 3.1053936540125022 0 0 0
184 1 7.7937268745392005 4.4997726129479725 3.105190160593705 0 0 0
187 1 10.911192877826185 4.499735107087165 3.104861971805204 0 0 0
188 2 12.470169560457549 3.5998106078325924 4.663576591452494 0 0 0
189 1 14.028795118932434 4.499788144662081 3.104534794220485 0 0 0
190 2 15.587671865027792 3.5998291039424855 4.6633580275419195 0 0 0
191 1 17.1463667096943 4.499776653428783 3.104365681327035 0 0 0
192 2 18.705202330833632 3.5998281882978924 4.663211666195185 0 0 0
193 1 20.263936117236753 4.499782032269351 3.104271825859746 0 0 0
194 1 23.381500835277933 4.499778919760119 3.1042632898948113 0 0 0
195 2 21.82271755208387 3.5998206394635117 4.663152754949603 0 0 0
196 1 26.49906646749653 4.499779280787889 3.1043390688209818 0 0 0
197 2 24.940248152225433 3.5998296253344235 4.663209818968252 0 0 0
198 1 29.616618297958713 4.49977969859273 3.1043610706310636 0 0 0
199 2 28.05783585146117 3.599829032069136 4.663266590206247 0 0 0
200 2 31.1753941872983 3.5998228456525316 4.6632625053706835 0 0 0
203 1 3.1175487687464387 7.199670046922466 3.105524448389118 0 0 0
205 1 6.234979984332527 7.199674445252011 3.105288497272331 0 0 0
206 1 9.352445413106784 7.1996743973146655 3.105044955393681 0 0 0
207 2 10.911440625993192 6.2996868305728455 4.663711869137131 0 0 0
208 1 12.470023731835829 7.19964589379816 3.104652038683855 0 0 0
209 2 14.028892125772197 6.29970408874227 4.663450099257751 0 0 0
210 1 15.587577398354338 7.199644794957475 3.104434450897382 0 0 0
211 2 17.146436802756774 6.299691608606064 4.663274857745395 0 0 0
212 1 18.70515770246729 7.199648141707263 3.104312911523308 0 0 0
213 2 20.2639682636877 6.299693490937646 4.663169426763948 0 0 0
214 2 23.381473738449646 6.299690943978795 4.663171005916675 0 0 0
215 1 21.822720900848978 7.199648081197093 3.1042515423580213 0 0 0
216 2 26.499040333841563 6.29969991904076 4.663247095027189 0 0 0
217 1 24.940284986426736 7.199647118396951 3.1043010161738493 0 0 0
218 2 29.61662076361077 6.299692879263499 4.663268608116391 0 0 0
219 1 28.057844444175952 7.199647295542568 3.104359413894519 0 0 0
220 1 31.175388462180088 7.1996479785025835 3.104354344829159 0 0 0
221 1 1.5587852453921185 9.899490756160171 3.1056723086392246 0 0 0
222 1 4.676265536608427 9.899542665613623 3.105393654012676 0 0 0
224 1 7.793726874539283 9.899508449941878 3.1051901605938252 0 0 0
227 1 10.911192877826055 9.89947094408026 3.1048619718047723 0 0 0
228 2 12.470169560457684 8.999546444826464 4.66357659145256 0 0 0
229 1 14.028795118932573 9.899523981655312 3.104534794220441 0 0 0
230 2 15.587671865026378 8.99956494093553 4.663358027542436 0 0 0
231 1 17.146366709698807 9.899512490423545 3.104365681327276 0 0 0
232 2 18.70520233083249 8.999564025292088 4.663211666194077 0 0 0
233 1 20.263936117236742 9.899517869263809 3.1042718258601742 0 0 0
234 1 23.381500835279635 9.899514756752989 3.104263289894676 0 0 0
235 2 21.822717552083674 8.99955647645737 4.663152754949675 0 0 0
236 1 26.49906646749806 9.899515117783425 3.1043390688212815 0 0 0
237 2 24.94024815222462 8.999565462328293 4.663209818968508 0 0 0
238 1 29.61661829795941 9.89951553558627 3.10436107063098 0 0 0
239 2 28.057835851460766 8.999564869063388 4.66326659020664 0 0 0
240 2 31.175394187298142 8.999558682646658 4.6632625053703745 0 0 0
243 1 3.117548768746353 12.599405883916624 3.1055244483896747 0 0 0
245 1 6.234979984332478 12.599410282246081 3.105288497272399 0 0 0
246 1 9.35244541310589 12.59941023430882 3.105044955393568 0 0 0
247 2 10.911440625993531 11.699422667566864 4.663711869137685 0 0 0
248 1 12.47002373183648 12.599381730790352 3.104652038683997 0 0 0
249 2 14.028892125772218 11.699439925736709 4.663450099257043 0 0 0
250 1 15.587577398353474 12.599380631949339 3.1044344508970645 0 0 0
251 2 17.14643680275682 11.699427445599978 4.663274857744725 0 0 0
252 1 18.705157702466632 12.599383978698759 3.1043129115230395 0 0 0
253 2 20.26396826368766 11.699429327931362 4.663169426763627 0 0 0
254 2 23.381473738449657 11.699426780972745 4.66317100591705 0 0 0
255 1 21.82272090084889 12.599383918191585 3.1042515423582473 0 0 0
256 2 26.499040333840906 11.699435756033703 4.6632470950271125 0 0 0
257 1 24.9402849864269 12.599382955390668 3.1043010161739453 0 0 0
258 2 29.616620763610683 11.699428716257305 4.663268608116155 0 0 0
259 1 28.057844444177487 12.599383132537431 3.104359413894423 0 0 0
260 1 31.175388462178425 12.599383815497976 3.104354344829134 0 0 0
261 1 1.558785245394343 15.299226593155877 3.1056723086394795 0 0 0
262 1 4.6762655366091375 15.29927850260747 3.105393654012968 0 0 0
264 1 7.793726874538843 15.299244286935462 3.1051901605939274 0 0 0
267 1 10.911192877826213 15.299206781073769 3.1048619718050365 0 0 0
268 2 12.47016956045766 14.399282281821026 4.663576591452499 0 0 0
269 1 14.02879511893233 15.29925981864729 3.1045347942205765 0 0 0
270 2 15.587671865027662 14.399300777930986 4.6633580275415225 0 0 0
271 1 17.14636670969544 15.299248327413082 3.104365681327627 0 0 0
272 2 18.705202330832307 14.399299862286378 4.663211666195456 0 0 0
273 1 20.263936117238565 15.299253706259103 3.10427182585978 0 0 0
274 1 23.381500835280445 15.299250593747669 3.1042632898944387 0 0 0
275 2 21.82271755208318 14.399292313450617 4.663152754949852 0 0 0
276 1 26.499066467496714 15.299250954777408 3.1043390688212247 0 0 0
277 2 24.940248152224743 14.39930129932214 4.663209818968095 0 0 0
278 1 29.616618297959295 15.299251372579507 3.104361070630891 0 0 0
279 2 28.057835851461064 14.399300706056906 4.66326659020655 0 0 0
280 2 31.175394187298537 14.399294519640158 4.663262505369824 0 0 0
283 1 3.1175487687458188 17.999141720910224 3.1055244483884095 0 0 0
285 1 6.234979984332422 17.99914611923922 3.105288497272675 0 0 0
286 1 9.352445413105738 17.999146071302555 3.1050449553925987 0 0 0
287 2 10.91144062599398 17.099158504560553 4.663711869137704 0 0 0
288 1 12.470023731835203 17.99911756778502 3.10465203868429 0 0 0
289 2 14.028892125772286 17.09917576273068 4.663450099258293 0 0 0
290 1 15.587577398354581 17.999116468942876 3.104434450896607 0 0 0
291 2 17.146436802756707 17.09916328259485 4.663274857745667 0 0 0
292 1 18.705157702466416 17.99911981569451 3.10431291152353 0 0 0
293 2 20.263968263688014 17.099165164924912 4.663169426763091 0 0 0
294 2 23.381473738448953 17.09916261796649 4.663171005916602 0 0 0
295 1 21.822720900848775 17.999119755181994 3.1042515423581807 0 0 0
296 2 26.499040333841403 17.099171593027393 4.663247095026731 0 0 0
297 1 24.940284986427915 17.99911879238535 3.1043010161741282 0 0 0
298 2 29.616620763611202 17.0991645532508 4.663268608117575 0 0 0
299 1 28.057844444174243 17.99911896953355 3.104359413894526 0 0 0
300 1 31.17538846218182 17.999119652488034 3.10435434482921 0 0 0
301 1 1.5587852453931572 20.698962430149383 3.105672308639804 0 0 0
302 1 4.67626553660828 20.699014339601547 3.1053936540129796 0 0 0
304 1 7.793726874539153 20.698980123929275 3.105190160594527 0 0 0
307 1 10.911192877826487 20.6989426180665 3.1048619718046337 0 0 0
308 2 12.470169560457576 19.79901811881451 4.663576591452093 0 0 0
309 1 14.028795118932713 20.69899565564164 3.104534794220837 0 0 0
310 2 15.587671865026586 19.799036614924113 4.663358027542764 0 0 0
311 1 17.146366709697 20.698984164411524 3.1043656813270823 0 0 0
312 2 18.705202330832467 19.799035699279 4.663211666195272 0 0 0
313 1 20.263936117238675 20.698989543252612 3.1042718258598785 0 0 0
314 1 23.38150083527992 20.698986430745805 3.1042632898946327 0 0 0
315 2 21.8227175520827 19.799028150444997 4.663152754950919 0 0 0
316 1 26.499066467495485 20.698986791769588 3.1043390688210883 0 0 0
317 2 24.94024815222571 19.79903713631546 4.6632098189679665 0 0 0
318 1 29.616618297959906 20.698987209576508 3.1043610706311684 0 0 0
319 2 28.05783585146115 19.79903654304962 4.6632665902066295 0 0 0
320 2 31.175394187297893 19.799030356634134 4.663262505371573 0 0 0
323 1 3.1175487687457797 23.398877557903337 3.1055244483873183 0 0 0
325 1 6.234979984332201 23.39888195623312 3.1052884972714305 0 0 0
326 1 9.35244541310654 23.39888190829599 3.105044955394072 0 0 0
327 2 10.911440625992881 22.498894341554532 4.663711869138323 0 0 0
328 1 12.470023731836791 23.398853404781295 3.1046520386833447 0 0 0
329 2 14.028892125772627 22.49891159972401 4.6634500992578 0 0 0
330 1 15.587577398352472 23.39885230593972 3.104434450897586 0 0 0
331 2 17.14643680275726 22.49889911958682 4.663274857745182 0 0 0
332 1 18.705157702466202 23.39885565268849 3.1043129115233796 0 0 0
333 2 20.263968263688884 22.498901001918927 4.663169426762473 0 0 0
334 2 23.3814737384502 22.49889845495822 4.663171005916867 0 0 0
335 1 21.822720900844686 23.398855592178183 3.1042515423584995 0 0 0
336 2 26.49904033384168 22.498907430021887 4.663247095027564 0 0 0
337 1 24.940284986426768 23.398854629379905 3.104301016173561 0 0 0
338 2 29.616620763609173 22.498900390243605 4.663268608116491 0 0 0
339 1 28.057844444177363 23.398854806521804 3.1043594138945325 0 0 0
340 1 31.17538846218298 23.398855489487424 3.104354344828706 0 0 0
341 1 1.5587852453932303 26.09869826714316 3.105672308642917 0 0 0
342 1 4.676265536608556 26.098750176595512 3.105393654013244 0 0 0
344 1 7.79372687453876 26.0987159609233 3.105190160594435 0 0 0
347 1 10.911192877825135 26.098678455065883 3.1048619718055495 0 0 0
348 2 12.470169560458011 25.198753955806584 4.663576591453136 0 0 0
349 1 14.028795118932505 26.098731492638013 3.1045347942202226 0 0 0
350 2 15.587671865027973 25.198772451917584 4.663358027540802 0 0 0
351 1 17.14636670969589 26.09872000139772 3.104365681327002 0 0 0
352 2 18.705202330831888 25.19877153627358 4.663211666194784 0 0 0
353 1 20.263936117238682 26.098725380246922 3.1042718258594864 0 0 0
354 1 23.38150083527951 26.098722267736214 3.1042632898946567 0 0 0
355 2 21.82271755208357 25.198763987438408 4.663152754949797 0 0 0
356 1 26.4990664674968 26.09872262876778 3.1043390688216435 0 0 0
357 2 24.94024815222478 25.19877297330879 4.66320981896824 0 0 0
358 1 29.61661829795739 26.098723046567457 3.104361070631061 0 0 0
359 2 28.057835851461668 25.198772380045416 4.663266590207168 0 0 0
360 2 31.175394187300192 25.198766193627744 4.663262505368248 0 0 0
363 1 3.117548768746295 28.798613394897245 3.105524448387762 0 0 0
365 1 6.234979984332312 28.798617793226963 3.1052884972721273 0 0 0
366 1 9.352445413104988 28.79861774529075 3.105044955392279 0 0 0
367 2 10.911440625994565 27.898630178546718 4.66371186913651 0 0 0
368 1 12.470023731834972 28.798589241770646 3.1046520386842547 0 0 0
369 2 14.02889212577143 27.898647436716757 4.663450099257819 0 0 0
370 1 15.587577398354716 28.798588142936815 3.10443445089728 0 0 0
371 2 17.146436802757215 27.898634956582764 4.6632748577471705 0 0 0
372 1 18.705157702467027 28.79859148968132 3.1043129115237513 0 0 0
373 2 20.26396826368812 27.898636838912292 4.663169426762413 0 0 0
374 2 23.38147373845064 27.898634291952874 4.663171005917812 0 0 0
375 1 21.822720900845106 28.798591429174373 3.1042515423581687 0 0 0
376 2 26.49904033384165 27.898643267013565 4.663247095026768 0 0 0
377 1 24.940284986425947 28.798590466373884 3.104301016173781 0 0 0
378 2 29.6166207636105 27.898636227237752 4.663268608118004 0 0 0
379 1 28.057844444175714 28.798590643520775 3.104359413894182 0 0 0
380 1 31.175388462181584 28.79859132648042 3.1043543448294364 0 0 0
381 1 1.558785245391833 31.498434104135047 3.1056723086393947 0 0 0
382 1 4.676265536608372 31.498486013588646 3.105393654013109 0 0 0
384 1 7.793726874539229 31.498451797916815 3.105190160594117 0 0 0
387 1 10.91119287782806 31.498414292052793 3.1048619718050707 0 0 0
388 2 12.47016956045719 30.598489792803022 4.663576591451835 0 0 0
389 1 14.028795118930255 31.49846732963216 3.1045347942205064 0 0 0
390 2 15.587671865027362 30.598508288908878 4.6633580275420226 0 0 0
391 1 17.14636670969732 31.498455838400556 3.1043656813271276 0 0 0
392 2 18.705202330832478 30.598507373266877 4.663211666195584 0 0 0
393 1 20.263936117237996 31.498461217240465 3.1042718258599717 0 0 0
394 1 23.38150083527838 31.498458104729977 3.1042632898947433 0 0 0
395 2 21.822717552083937 30.59849982443161 4.663152754949061 0 0 0
396 1 26.499066467497865 31.498458465760326 3.104339068821436 0 0 0
397 2 24.94024815222479 30.59850881030254 4.663209818968471 0 0 0
398 1 29.616618297956965 31.498458883557614 3.104361070630452 0 0 0
399 2 28.057835851461917 30.598508217038287 4.6632665902051835 0 0 0
400 2 31.17539418729831 30.598502030621205 4.663262505369604 0 0 0
403 1 3.1175487687462935 34.198349231891534 3.105524448389325 0 0 0
405 1 6.234979984332416 34.19835363022063 3.105288497272506 0 0 0
406 1 9.352445413106597 34.19835358228336 3.105044955393312 0 0 0
407 2 10.91144062599335 33.29836601554269 4.663711869138024 0 0 0
408 1 12.47002373183569 34.19832507876641 3.10465203868339 0 0 0
409 2 14.028892125772202 33.2983832737105 4.663450099257744 0 0 0
410 1 15.587577398353115 34.1983239799295 3.1044344508971595 0 0 0
411 2 17.14643680275682 33.29837079357346 4.663274857745386 0 0 0
412 1 18.70515770246875 34.19832732667621 3.1043129115230483 0 0 0
413 2 20.263968263687563 33.29837267590612 4.663169426763002 0 0 0
414 2 23.381473738449408 33.29837012894634 4.663171005917675 0 0 0
415 1 21.822720900847585 34.19832726616632 3.1042515423577175 0 0 0
416 2 26.499040333841485 33.298379104007054 4.663247095027674 0 0 0
417 1 24.940284986426768 34.19832630337245 3.104301016173786 0 0 0
418 2 29.616620763610943 33.29837206423308 4.663268608117898 0 0 0
419 1 28.057844444176762 34.19832648051591 3.104359413895125 0 0 0
420 1 31.175388462179228 34.198327163473984 3.1043543448292334 0 0 0
421 1 1.5587852453933722 36.89816994112999 3.1056723086385456 0 0 0
422 1 4.676265536608787 36.89822185058291 3.105393654012803 0 0 0
424 1 7.793726874538991 36.898187634910926 3.1051901605949244 0 0 0
427 1 10.91119287782726 36.89815012904823 3.104861971806075 0 0 0
428 2 12.470169560457808 35.998225629796565 4.6635765914510054 0 0 0
429 1 14.028795118931319 36.8982031666192 3.1045347942207693 0 0 0
430 2 15.587671865025797 35.99824412590355 4.6633580275418645 0 0 0
431 1 17.146366709698253 36.89819167539813 3.1043656813274763 0 0 0
432 2 18.705202330833508 35.99824321026079 4.663211666194281 0 0 0
426 1 20.263936117236536 36.89819705422912 3.1042718258605384 0 0 0
423 2 21.822717552083304 35.99823566142691 4.663152754948866 0 0 0
425 1 23.38150083528054 36.89819394172058 3.1042632898955893 0 0 0
402 2 24.940248152225017 35.998244647296254 4.663209818965524 0 0 0
404 1 26.49906646749446 36.898194302751804 3.1043390688198804 0 0 0
386 2 28.05783585146176 35.9982440540303 4.66326659020666 0 0 0
401 1 29.616618297958144 36.89819472055904 3.104361070631183 0 0 0
385 2 31.175394187298764 35.99823786761412 4.663262505370725 0 0 0
383 1 3.117548768746864 39.59808506888589 3.1055244483884508 0 0 0
364 1 6.2349799843324645 39.5980894672144 3.105288497271128 0 0 0
362 1 9.352445413106521 39.59808941927696 3.1050449553934447 0 0 0
346 1 12.470023731834745 39.5980609157598 3.104652038682886 0 0 0
361 2 10.911440625993345 38.69810185253614 4.663711869137473 0 0 0
343 1 15.58757739835073 39.59805981691923 3.1044344508976143 0 0 0
345 2 14.028892125773549 38.69811911070717 4.663450099258361 0 0 0
322 1 18.705157702470498 39.5980631636721 3.1043129115222574 0 0 0
324 2 17.14643680275624 38.69810663056594 4.663274857745221 0 0 0
321 2 20.26396826368834 38.69810851290115 4.663169426763972 0 0 0
305 1 21.822720900842747 39.59806310316397 3.10425154235735 0 0 0
306 2 23.381473738450484 38.69810596593984 4.66317100592022 0 0 0
284 1 24.9402849864277 39.59806214036669 3.1043010161737996 0 0 0
303 2 26.499040333841222 38.69811494100173 4.663247095029008 0 0 0
281 1 28.057844444177537 39.59806231751121 3.1043594138954753 0 0 0
282 2 29.616620763610786 38.698107901224084 4.663268608115574 0 0 0
266 1 31.175388462178216 39.5980630004701 3.1043543448290256 0 0 0
265 1 1.558785245393428 42.29790577812401 3.105672308639306 0 0 0
263 1 4.676265536608199 42.29795768757635 3.1053936540132123 0 0 0
244 1 7.793726874538822 42.297923471904575 3.105190160594154 0 0 0
241 2 12.470169560456192 41.39796146678867 4.663576591453539 0 0 0
242 1 10.911192877827759 42.29788596604024 3.1048619718043073 0 0 0
225 2 15.587671865027119 41.39797996289661 4.663358027544397 0 0 0
226 1 14.028795118933386 42.29793900362789 3.104534794221523 0 0 0
204 2 18.70520233083309 41.397979047252406 4.6632116661962195 0 0 0
223 1 17.146366709695624 42.29792751239484 3.1043656813264286 0 0 0
202 1 20.263936117239904 42.297932891228676 3.1042718258621944 0 0 0
186 2 21.822717552082846 41.39797149841837 4.663152754948639 0 0 0
201 1 23.3815008352791 42.29792977872209 3.1042632898953006 0 0 0
183 2 24.94024815222584 41.397980484288574 4.66320981896699 0 0 0
185 1 26.49906646749562 42.29793013974495 3.104339068820371 0 0 0
162 2 28.05783585146013 41.397979891023446 4.663266590206815 0 0 0
164 1 29.616618297961054 42.29793055755405 3.1043610706301883 0 0 0
161 2 31.17539418729929 41.39797370460758 4.663262505369076 0 0 0
433 3 1.5586940975667678 44.09780694753809 1.546691099660727 0 0 0
434 3 4.676152227307098 44.09785619398459 1.54641001525791 0 0 0
435 3 7.793601230915427 44.09782608134456 1.546211731817629 0 0 0
436 3 10.911048404538409 44.09781894969535 1.5459511202310154 0 0 0
437 3 14.028689749746643 44.09784889725445 1.5456162157039328 0 0 0
438 3 17.146309733720454 44.097846901496226 1.545468267069279 0 0 0
439 3 20.26391276318503 44.09785236707318 1.5453544862546433 0 0 0
440 3 23.381530617181127 44.09785136818183 1.5453577655673196 0 0 0
441 3 26.49909331810744 44.09784119987644 1.5454333582583353 0 0 0
442 3 29.616616235632904 44.097842352148135 1.5454526352433773 0 0 0