LAMMPS data file via write_data, version 2 Aug 2023, timestep = 287, units = metal

47808 atoms
3 atom types

0 1558.770911285239 xlo xhi
0 86.39585137739422 ylo yhi
0 50 zlo zhi
0 0 0 xy xz yz

Masses

1 95.94
2 32.065
3 32.065

Atoms # atomic

1 3 1.5586969883546244 0.8999220506851856 1.5458020683343061 0 0 0
2 3 4.6761537467684615 0.8999613506490554 1.5457382740022163 0 0 0
3 3 7.793750681373908 0.899963418226577 1.5455225434599102 0 0 0
4 3 10.91134982404816 0.899970037284924 1.5454006641781028 0 0 0
5 3 14.028949748718494 0.8999631348811977 1.545383771964154 0 0 0
6 3 17.146500039960305 0.899955445352099 1.5454293296816448 0 0 0
7 3 20.264026141685505 0.8999560681049711 1.5454462207399524 0 0 0
8 3 23.381563509255702 0.8999570303811367 1.5454414655556181 0 0 0
9 3 26.499105323771666 0.8999567366016408 1.5454397517149494 0 0 0
10 3 29.61664667188109 0.899956782415732 1.545440050318679 0 0 0
11 3 3.117393769007193 3.599801695003542 1.545854531362651 0 0 0
12 3 6.234959864256621 3.599832739804166 1.545613837540578 0 0 0
13 3 9.352555109156215 3.5998348683658223 1.5454501194810097 0 0 0
14 3 12.470155200351709 3.5998377020493195 1.5453773560418624 0 0 0
15 3 15.587731838430257 3.5998283289675284 1.5454061531072074 0 0 0
16 3 18.70526248529091 3.5998253826410527 1.5454427787372766 0 0 0
17 3 21.822793362051303 3.599827240569186 1.5454442124066843 0 0 0
18 3 24.940334467132466 3.599827206412829 1.5454400208111774 0 0 0
19 3 28.057875995325023 3.5998270974725544 1.5454399109654837 0 0 0
20 3 31.17541746284864 3.5998271608042383 1.5454400934892243 0 0 0
21 3 1.5586969883544972 6.299662761772395 1.5458020683344489 0 0 0
22 3 4.676153746768483 6.299702061736203 1.5457382740021988 0 0 0
23 3 7.7937506813739175 6.2997041293136995 1.5455225434599196 0 0 0
24 3 10.911349824048171 6.299710748372017 1.5454006641781186 0 0 0
25 3 14.028949748718466 6.2997038459683345 1.5453837719641559 0 0 0
26 3 17.146500039960284 6.299696156439241 1.545429329681645 0 0 0
27 3 20.26402614168546 6.299696779192088 1.5454462207399944 0 0 0
28 3 23.38156350925575 6.2996977414683055 1.545441465555626 0 0 0
29 3 26.499105323771666 6.299697447688754 1.5454397517149747 0 0 0
30 3 29.616646671881057 6.299697493502879 1.545440050318685 0 0 0
31 3 3.1173937690072204 8.999542406090693 1.545854531362617 0 0 0
32 3 6.234959864256615 8.99957345089131 1.5456138375405784 0 0 0
33 3 9.352555109156215 8.999575579452964 1.5454501194810217 0 0 0
34 3 12.470155200351725 8.999578413136462 1.5453773560418609 0 0 0
35 3 15.587731838430251 8.99956904005467 1.5454061531072278 0 0 0
36 3 18.70526248529091 8.99956609372822 1.545442778737288 0 0 0
37 3 21.822793362051303 8.999567951656323 1.5454442124066818 0 0 0
38 3 24.940334467132466 8.999567917499979 1.545440020811179 0 0 0
39 3 28.057875995325023 8.999567808559695 1.5454399109654893 0 0 0
40 3 31.17541746284863 8.999567871891367 1.5454400934892312 0 0 0
41 3 1.5586969883545685 11.699403472859576 1.5458020683343188 0 0 0
42 3 4.67615374676847 11.69944277282337 1.5457382740021963 0 0 0
43 3 7.7937506813739175 11.699444840400846 1.5455225434599213 0 0 0
44 3 10.911349824048171 11.699451459459175 1.5454006641781177 0 0 0
45 3 14.028949748718466 11.699444557055488 1.5453837719641592 0 0 0
46 3 17.146500039960294 11.699436867526396 1.5454293296816466 0 0 0
47 3 20.26402614168546 11.699437490279244 1.5454462207399917 0 0 0
48 3 23.381563509255713 11.699438452555466 1.5454414655556228 0 0 0
49 3 26.499105323771655 11.699438158775914 1.5454397517149903 0 0 0
50 3 29.616646671881057 11.699438204590052 1.545440050318677 0 0 0
51 3 3.1173937690072124 14.399283117177822 1.545854531362626 0 0 0
52 3 6.2349598642566235 14.399314161978438 1.5456138375405775 0 0 0
53 3 9.35255510915621 14.399316290540098 1.5454501194810262 0 0 0
54 3 12.470155200351725 14.39931912422361 1.5453773560418573 0 0 0
55 3 15.587731838430251 14.399309751141827 1.545406153107222 0 0 0
56 3 18.70526248529091 14.399306804815375 1.5454427787372917 0 0 0
57 3 21.822793362051303 14.399308662743481 1.5454442124066918 0 0 0
58 3 24.940334467132455 14.399308628587134 1.5454400208111767 0 0 0
59 3 28.05787599532501 14.399308519646844 1.5454399109654833 0 0 0
60 3 31.17541746284863 14.399308582978525 1.5454400934892332 0 0 0
61 3 1.5586969883545552 17.099144183946706 1.5458020683343334 0 0 0
62 3 4.6761537467684775 17.099183483910497 1.545738274002202 0 0 0
63 3 7.793750681373918 17.099185551488006 1.5455225434599202 0 0 0
64 3 10.911349824048179 17.099192170546328 1.5454006641781202 0 0 0
65 3 14.028949748718476 17.099185268142623 1.5453837719641648 0 0 0
66 3 17.146500039960294 17.099177578613535 1.5454293296816533 0 0 0
67 3 20.264026141685495 17.099178201366374 1.5454462207399842 0 0 0
68 3 23.381563509255738 17.0991791636426 1.5454414655556101 0 0 0
69 3 26.499105323771666 17.099178869863042 1.545439751714976 0 0 0
70 3 29.616646671881067 17.099178915677165 1.5454400503186707 0 0 0
71 3 3.1173937690072155 19.79902382826499 1.5458545313626229 0 0 0
72 3 6.234959864256617 19.799054873065575 1.545613837540573 0 0 0
73 3 9.352555109156205 19.799057001627226 1.5454501194810202 0 0 0
74 3 12.470155200351725 19.799059835310732 1.5453773560418576 0 0 0
75 3 15.587731838430251 19.79905046222896 1.545406153107217 0 0 0
76 3 18.7052624852909 19.799047515902522 1.5454427787372917 0 0 0
77 3 21.822793362051314 19.799049373830606 1.545444212406678 0 0 0
78 3 24.940334467132466 19.79904933967429 1.5454400208112014 0 0 0
79 3 28.05787599532502 19.799049230733974 1.5454399109654815 0 0 0
80 3 31.17541746284863 19.799049294065643 1.5454400934892412 0 0 0
81 3 1.5586969883544817 22.49888489503389 1.5458020683344271 0 0 0
82 3 4.6761537467684615 22.49892419499763 1.5457382740021905 0 0 0
83 3 7.793750681373912 22.498926262575146 1.5455225434599218 0 0 0
84 3 10.911349824048166 22.498932881633444 1.5454006641781164 0 0 0
85 3 14.028949748718476 22.49892597922978 1.5453837719641603 0 0 0
86 3 17.146500039960294 22.498918289700637 1.54542932968165 0 0 0
87 3 20.264026141685477 22.498918912453497 1.5454462207399897 0 0 0
88 3 23.381563509255727 22.49891987472973 1.5454414655556241 0 0 0
89 3 26.499105323771715 22.498919580950187 1.545439751714965 0 0 0
90 3 29.616646671881067 22.498919626764334 1.5454400503186885 0 0 0
91 3 3.117393769007139 25.198764539352148 1.54585453136271 0 0 0
92 3 6.234959864256618 25.198795584152716 1.5456138375405724 0 0 0
93 3 9.35255510915622 25.198797712714384 1.5454501194810193 0 0 0
94 3 12.470155200351709 25.198800546397848 1.5453773560418573 0 0 0
95 3 15.587731838430235 25.198791173316106 1.5454061531072236 0 0 0
96 3 18.7052624852909 25.19878822698967 1.5454427787372933 0 0 0
97 3 21.822793362051314 25.19879008491775 1.5454442124067012 0 0 0
98 3 24.940334467132466 25.198790050761385 1.5454400208111843 0 0 0
99 3 28.05787599532505 25.198789941821097 1.5454399109654844 0 0 0
100 3 31.17541746284863 25.198790005152787 1.5454400934892365 0 0 0
101 3 1.5586969883545503 27.89862560612094 1.5458020683344436 0 0 0
102 3 4.676153746768459 27.89866490608475 1.5457382740021932 0 0 0
103 3 7.7937506813739175 27.89866697366225 1.545522543459909 0 0 0
104 3 10.911349824048171 27.89867359272059 1.5454006641781164 0 0 0
105 3 14.028949748718471 27.89866669031688 1.5453837719641623 0 0 0
106 3 17.146500039960294 27.89865900078779 1.5454293296816595 0 0 0
107 3 20.264026141685466 27.898659623540638 1.5454462207399906 0 0 0
108 3 23.381563509255738 27.89866058581686 1.545441465555624 0 0 0
109 3 26.499105323771666 27.898660292037302 1.5454397517149934 0 0 0
110 3 29.616646671881078 27.898660337851478 1.5454400503186787 0 0 0
111 3 3.117393769007228 30.598505250439224 1.5458545313626129 0 0 0
112 3 6.234959864256612 30.59853629523984 1.5456138375405828 0 0 0
113 3 9.352555109156187 30.598538423801497 1.5454501194810273 0 0 0
114 3 12.470155200351725 30.598541257484992 1.54537735604187 0 0 0
115 3 15.58773183843027 30.59853188440321 1.5454061531072223 0 0 0
116 3 18.7052624852909 30.598528938076782 1.5454427787372764 0 0 0
117 3 21.82279336205129 30.598530796004848 1.5454442124066865 0 0 0
118 3 24.940334467132512 30.59853076184852 1.5454400208111878 0 0 0
119 3 28.057875995325023 30.59853065290827 1.545439910965499 0 0 0
120 3 31.17541746284864 30.5985307162399 1.5454400934892132 0 0 0
121 3 1.5586969883544786 33.29836631720814 1.5458020683343936 0 0 0
122 3 4.676153746768473 33.29840561717192 1.5457382740021788 0 0 0
123 3 7.793750681373928 33.29840768474937 1.5455225434599318 0 0 0
124 3 10.911349824048179 33.2984143038077 1.5454006641781235 0 0 0
125 3 14.028949748718455 33.29840740140401 1.5453837719641712 0 0 0
126 3 17.146500039960326 33.298399711874936 1.545429329681654 0 0 0
127 3 20.26402614168546 33.298400334627786 1.5454462207399962 0 0 0
128 3 23.381563509255738 33.29840129690401 1.5454414655556237 0 0 0
129 3 26.499105323771655 33.29840100312448 1.5454397517149783 0 0 0
130 3 29.616646671881067 33.29840104893857 1.5454400503186692 0 0 0
131 3 3.1173937690071503 35.99824596152636 1.5458545313626677 0 0 0
132 3 6.234959864256626 35.99827700632701 1.5456138375405823 0 0 0
133 3 9.352555109156201 35.99827913488863 1.5454501194810082 0 0 0
134 3 12.470155200351742 35.99828196857215 1.5453773560418473 0 0 0
135 3 15.587731838430235 35.998272595490356 1.5454061531072376 0 0 0
136 3 18.705262485290945 35.99826964916393 1.5454427787372755 0 0 0
137 3 21.822793362051314 35.99827150709199 1.5454442124066752 0 0 0
138 3 24.940334467132466 35.99827147293564 1.5454400208111747 0 0 0
139 3 28.05787599532501 35.99827136399538 1.5454399109654995 0 0 0
140 3 31.17541746284865 35.99827142732707 1.545440093489228 0 0 0
141 3 1.5586969883544843 38.698107028295226 1.545802068334503 0 0 0
142 3 4.676153746768502 38.698146328259035 1.5457382740021868 0 0 0
143 3 7.793750681373918 38.698148395836526 1.5455225434599391 0 0 0
144 3 10.91134982404816 38.6981550148948 1.5454006641781333 0 0 0
145 3 14.028949748718501 38.69814811249117 1.5453837719641574 0 0 0
146 3 17.146500039960326 38.698140422962055 1.5454293296816475 0 0 0
147 3 20.264026141685466 38.698141045714934 1.5454462207399913 0 0 0
148 3 23.381563509255727 38.69814200799113 1.5454414655556228 0 0 0
149 3 26.499105323771655 38.6981417142116 1.5454397517150027 0 0 0
150 3 29.616646671881078 38.69814176002567 1.545440050318695 0 0 0
151 3 3.1173937690071956 41.397986672613484 1.545854531362647 0 0 0
152 3 6.2349598642566 41.39801771741409 1.5456138375405684 0 0 0
153 3 9.352555109156233 41.39801984597575 1.5454501194810042 0 0 0
154 3 12.47015520035172 41.39802267965925 1.5453773560418531 0 0 0
155 3 15.587731838430257 41.39801330657748 1.5454061531072463 0 0 0
156 3 18.7052624852909 41.39801036025105 1.5454427787372804 0 0 0
157 3 21.822793362051314 41.39801221817912 1.545444212406679 0 0 0
158 3 24.94033446713249 41.39801218402281 1.5454400208111756 0 0 0
159 3 28.05787599532501 41.39801207508254 1.5454399109654855 0 0 0
160 3 31.17541746284863 41.398012138414174 1.545440093489231 0 0 0
162 2 4.676388299503233 0.8999594860444068 4.6635282588507545 0 0 0
163 1 3.1174334794120115 1.7998605979626436 3.104758661585333 0 0 0
164 2 7.793911880719365 0.89995750913635 4.663337851049608 0 0 0
165 1 6.235052248362538 1.7999187424981664 3.1045224676136898 0 0 0
166 1 9.352607873497602 1.7999163055131326 3.1043530352828212 0 0 0
167 2 10.911422684536259 0.8999587518490632 4.663210335726618 0 0 0
168 1 12.470162702885167 1.7999181967369928 3.1042836410639203 0 0 0
169 2 14.028923087568321 0.8999570512244359 4.6631959033405295 0 0 0
170 1 15.58771046969717 1.7999147469425691 3.1043110917062555 0 0 0
171 2 17.14646603292578 0.8999602821573197 4.663242171584141 0 0 0
172 1 18.70525476589073 1.7999139000435669 3.104350318025125 0 0 0
173 2 20.264024817916734 0.8999573613410674 4.6632595891112425 0 0 0
174 2 23.381566921259402 0.899956220452618 4.663254886298427 0 0 0
175 1 21.822795421099755 1.7999138131416967 3.1043511105080484 0 0 0
176 2 26.499105456047644 0.899956737044888 4.663253002425514 0 0 0
177 1 24.940335194341504 1.7999137465268653 3.104346593546793 0 0 0
178 2 29.616646583830452 0.8999568080504103 4.663253218568885 0 0 0
179 1 28.05787594209047 1.7999136397322086 3.1043465090726774 0 0 0
180 1 31.175417459151948 1.799913603262573 3.1043466725067295 0 0 0
181 1 1.558700925676587 4.499815135087932 3.1048356880151315 0 0 0
182 1 4.676285988682074 4.49977800212986 3.10462476247546 0 0 0
183 2 3.1176163575153732 3.599827976834074 4.66361716300532 0 0 0
184 1 7.793834462130382 4.499785485958226 3.10442767525211 0 0 0
185 2 6.235154188316808 3.5998308469816678 4.663430322117975 0 0 0
186 2 9.352674586341076 3.5998291721683833 4.663262094463031 0 0 0
187 1 10.911388843670284 4.499789057125623 3.10430423207075 0 0 0
188 2 12.47017066337729 3.5998279055346485 4.663189332462273 0 0 0
189 1 14.028937264399204 4.499786391445245 3.10428839133182 0 0 0
190 2 15.587688439512362 3.59982975028677 4.663218787099365 0 0 0
191 1 17.146482984294106 4.499784522844029 3.104335512006071 0 0 0
192 2 18.705246791956114 3.5998296273333135 4.663255914067669 0 0 0
193 1 20.264025296808846 4.4997841588703835 3.104353618353131 0 0 0
194 1 23.381565197117723 4.499784153821918 3.104348069241213 0 0 0
195 2 21.822797352527694 3.599826682228082 4.66325764449248 0 0 0
196 1 26.49910543561557 4.499784040806005 3.1043463484584986 0 0 0
197 2 24.940335814363117 3.5998268754414138 4.663253343078029 0 0 0
198 1 29.616646647851457 4.499783970599235 3.1043466363952623 0 0 0
199 2 28.05787584326073 3.599827159795393 4.663253109364279 0 0 0
200 2 31.175417443928303 3.5998271623931872 4.663253249263827 0 0 0
202 2 4.676388299503256 6.299700197131577 4.663528258850757 0 0 0
203 1 3.1174334794120253 7.199601309049801 3.104758661585361 0 0 0
204 2 7.793911880719376 6.299698220223488 4.663337851049595 0 0 0
205 1 6.235052248362555 7.199659453585315 3.104522467613686 0 0 0
206 1 9.352607873497595 7.199657016600272 3.104353035282814 0 0 0
207 2 10.911422684536259 6.299699462936155 4.663210335726592 0 0 0
208 1 12.47016270288515 7.199658907824128 3.1042836410639247 0 0 0
209 2 14.028923087568332 6.299697762311599 4.66319590334051 0 0 0
210 1 15.58771046969718 7.199655458029705 3.1043110917062515 0 0 0
211 2 17.14646603292579 6.299700993244449 4.663242171584144 0 0 0
212 1 18.705254765890707 7.199654611130716 3.104350318025144 0 0 0
213 2 20.264024817916745 6.299698072428156 4.663259589111212 0 0 0
214 2 23.381566921259427 6.299696931539779 4.663254886298421 0 0 0
215 1 21.822795421099734 7.199654524228837 3.1043511105080492 0 0 0
216 2 26.499105456047666 6.299697448131999 4.663253002425484 0 0 0
217 1 24.94033519434148 7.199654457614008 3.1043465935467975 0 0 0
218 2 29.61664658383042 6.299697519137555 4.663253218568901 0 0 0
219 1 28.057875942090448 7.199654350819364 3.104346509072673 0 0 0
220 1 31.175417459151948 7.199654314349717 3.1043466725067335 0 0 0
221 1 1.5587009256765576 9.89955584617509 3.1048356880150374 0 0 0
222 1 4.676285988682074 9.899518713217022 3.104624762475449 0 0 0
223 2 3.1176163575153475 8.99956868792123 4.6636171630052905 0 0 0
224 1 7.793834462130367 9.899526197045374 3.104427675252115 0 0 0
225 2 6.235154188316771 8.999571558068823 4.66343032211797 0 0 0
226 2 9.352674586341076 8.999569883255528 4.663262094463025 0 0 0
227 1 10.911388843670276 9.899529768212762 3.104304232070757 0 0 0
228 2 12.47017066337729 8.999568616621803 4.663189332462279 0 0 0
229 1 14.028937264399222 9.899527102532398 3.10428839133182 0 0 0
230 2 15.587688439512368 8.999570461373928 4.663218787099346 0 0 0
231 1 17.146482984294085 9.89952523393119 3.104335512006076 0 0 0
232 2 18.705246791956124 8.999570338420487 4.663255914067677 0 0 0
233 1 20.264025296808835 9.899524869957546 3.1043536183531297 0 0 0
234 1 23.38156519711771 9.899524864909065 3.1043480692411944 0 0 0
235 2 21.822797352527704 8.999567393315244 4.663257644492474 0 0 0
236 1 26.49910543561558 9.89952475189316 3.1043463484585057 0 0 0
237 2 24.940335814363117 8.999567586528558 4.663253343078024 0 0 0
238 1 29.616646647851457 9.899524681686387 3.104346636395258 0 0 0
239 2 28.05787584326073 8.999567870882544 4.66325310936427 0 0 0
240 2 31.175417443928303 8.999567873480323 4.663253249263823 0 0 0
242 2 4.6763882995032615 11.699440908218717 4.663528258850755 0 0 0
243 1 3.1174334794120044 12.599342020136945 3.104758661585357 0 0 0
244 2 7.793911880719367 11.699438931310628 4.6633378510496035 0 0 0
245 1 6.235052248362555 12.59940016467246 3.1045224676136827 0 0 0
246 1 9.352607873497607 12.599397727687414 3.104353035282822 0 0 0
247 2 10.911422684536245 11.699440174023312 4.663210335726597 0 0 0
248 1 12.470162702885158 12.599399618911283 3.1042836410639247 0 0 0
249 2 14.028923087568298 11.699438473398747 4.663195903340513 0 0 0
250 1 15.587710469697198 12.599396169116854 3.104311091706258 0 0 0
251 2 17.146466032925805 11.699441704331615 4.663242171584148 0 0 0
252 1 18.705254765890704 12.599395322217877 3.1043503180251397 0 0 0
253 2 20.264024817916745 11.699438783515317 4.663259589111214 0 0 0
254 2 23.38156692125939 11.69943764262694 4.6632548862984295 0 0 0
255 1 21.822795421099734 12.599395235315997 3.104351110508055 0 0 0
256 2 26.499105456047644 11.699438159219172 4.6632530024254795 0 0 0
257 1 24.940335194341504 12.599395168701156 3.1043465935468024 0 0 0
258 2 29.61664658383042 11.69943823022472 4.6632532185688955 0 0 0
259 1 28.05787594209047 12.59939506190651 3.104346509072671 0 0 0
260 1 31.175417459151948 12.599395025436863 3.104346672506733 0 0 0
261 1 1.5587009256765572 15.299296557262224 3.1048356880150503 0 0 0
262 1 4.676285988682071 15.29925942430418 3.1046247624754555 0 0 0
263 2 3.117616357515346 14.399309399008372 4.663617163005296 0 0 0
264 1 7.793834462130377 15.299266908132529 3.104427675252112 0 0 0
265 2 6.235154188316777 14.399312269155972 4.663430322117981 0 0 0
266 2 9.352674586341088 14.399310594342671 4.663262094463032 0 0 0
267 1 10.911388843670284 15.299270479299901 3.104304232070756 0 0 0
268 2 12.47017066337729 14.39930932770896 4.663189332462278 0 0 0
269 1 14.028937264399222 15.299267813619531 3.104288391331814 0 0 0
270 2 15.587688439512375 14.399311172461058 4.66321878709935 0 0 0
271 1 17.146482984294117 15.299265945018334 3.104335512006076 0 0 0
272 2 18.705246791956103 14.399311049507643 4.663255914067677 0 0 0
273 1 20.264025296808846 15.29926558104467 3.1043536183531315 0 0 0
274 1 23.381565197117734 15.299265575996216 3.1043480692411998 0 0 0
275 2 21.822797352527715 14.399308104402403 4.663257644492471 0 0 0
276 1 26.499105435615594 15.2992654629803 3.1043463484584986 0 0 0
277 2 24.940335814363117 14.399308297615741 4.663253343078027 0 0 0
278 1 29.616646647851457 15.299265392773519 3.104346636395258 0 0 0
279 2 28.05787584326073 14.39930858196969 4.6632531093642795 0 0 0
280 2 31.175417443928303 14.399308584567489 4.663253249263814 0 0 0
282 2 4.67638829950325 17.09918161930588 4.663528258850748 0 0 0
283 1 3.117433479412014 17.999082731224092 3.104758661585346 0 0 0
284 2 7.793911880719367 17.099179642397782 4.6633378510496035 0 0 0
285 1 6.235052248362547 17.9991408757596 3.1045224676136898 0 0 0
286 1 9.352607873497607 17.99913843877457 3.1043530352828244 0 0 0
287 2 10.91142268453625 17.09918088511044 4.663210335726604 0 0 0
288 1 12.470162702885167 17.999140329998422 3.1042836410639247 0 0 0
289 2 14.028923087568321 17.099179184485894 4.663195903340515 0 0 0
290 1 15.58771046969719 17.999136880203977 3.10431109170626 0 0 0
291 2 17.14646603292579 17.099182415418753 4.663242171584146 0 0 0
292 1 18.70525476589073 17.999136033305025 3.1043503180251357 0 0 0
293 2 20.264024817916734 17.09917949460244 4.663259589111217 0 0 0
294 2 23.381566921259427 17.099178353714073 4.663254886298419 0 0 0
295 1 21.822795421099734 17.999135946403147 3.1043511105080484 0 0 0
296 2 26.499105456047655 17.099178870306304 4.663253002425483 0 0 0
297 1 24.940335194341515 17.99913587978829 3.104346593546798 0 0 0
298 2 29.61664658383043 17.09917894131185 4.6632532185688955 0 0 0
299 1 28.057875942090458 17.99913577299368 3.104346509072673 0 0 0
300 1 31.17541745915196 17.99913573652399 3.10434667250673 0 0 0
301 1 1.5587009256765887 20.699037268349393 3.1048356880150947 0 0 0
302 1 4.676285988682066 20.699000135391294 3.104624762475434 0 0 0
303 2 3.117616357515363 19.799050110095525 4.663617163005305 0 0 0
304 1 7.7938344621303735 20.699007619219646 3.10442767525211 0 0 0
305 2 6.23515418831678 19.79905298024311 4.66343032211797 0 0 0
306 2 9.352674586341088 19.799051305429796 4.663262094463022 0 0 0
307 1 10.91138884367029 20.699011190387058 3.1043042320707435 0 0 0
308 2 12.470170663377296 19.799050038796082 4.663189332462272 0 0 0
309 1 14.028937264399222 20.699008524706652 3.104288391331816 0 0 0
310 2 15.587688439512375 19.799051883548206 4.663218787099353 0 0 0
311 1 17.146482984294096 20.699006656105503 3.104335512006076 0 0 0
312 2 18.705246791956114 19.799051760594768 4.663255914067676 0 0 0
313 1 20.264025296808835 20.69900629213181 3.1043536183531275 0 0 0
314 1 23.381565197117755 20.699006287083364 3.104348069241205 0 0 0
315 2 21.82279735252768 19.799048815489513 4.663257644492461 0 0 0
316 1 26.499105435615565 20.69900617406742 3.104346348458502 0 0 0
317 2 24.940335814363127 19.799049008702866 4.663253343078016 0 0 0
318 1 29.616646647851468 20.699006103860643 3.1043466363952548 0 0 0
319 2 28.05787584326073 19.799049293056836 4.663253109364295 0 0 0
320 2 31.175417443928303 19.799049295654616 4.663253249263799 0 0 0
322 2 4.676388299503253 22.49892233039301 4.663528258850747 0 0 0
323 1 3.117433479412003 23.398823442311226 3.1047586615853997 0 0 0
324 2 7.793911880719376 22.498920353484923 4.663337851049603 0 0 0
325 1 6.235052248362561 23.398881586846738 3.1045224676136844 0 0 0
326 1 9.352607873497604 23.398879149861692 3.104353035282827 0 0 0
327 2 10.911422684536259 22.498921596197572 4.663210335726598 0 0 0
328 1 12.470162702885172 23.398881041085566 3.104283641063934 0 0 0
329 2 14.028923087568316 22.498919895573017 4.663195903340508 0 0 0
330 1 15.58771046969718 23.398877591291104 3.1043110917062497 0 0 0
331 2 17.14646603292578 22.498923126505872 4.663242171584149 0 0 0
332 1 18.705254765890704 23.398876744392147 3.104350318025144 0 0 0
333 2 20.264024817916745 22.498920205689604 4.663259589111221 0 0 0
334 2 23.38156692125942 22.498919064801207 4.663254886298407 0 0 0
335 1 21.822795421099734 23.398876657490256 3.104351110508047 0 0 0
336 2 26.499105456047655 22.498919581393427 4.66325300242551 0 0 0
337 1 24.94033519434147 23.398876590875407 3.1043465935467953 0 0 0
338 2 29.61664658383043 22.498919652399028 4.663253218568885 0 0 0
339 1 28.057875942090458 23.39887648408077 3.1043465090726805 0 0 0
340 1 31.175417459151927 23.398876447611116 3.104346672506727 0 0 0
341 1 1.5587009256766529 26.098777979436594 3.104835688015158 0 0 0
342 1 4.676285988682071 26.098740846478428 3.1046247624754675 0 0 0
343 2 3.1176163575154767 25.198790821182623 4.663617163005402 0 0 0
344 1 7.79383446213038 26.098748330306776 3.104427675252114 0 0 0
345 2 6.235154188316782 25.198793691330234 4.663430322117978 0 0 0
346 2 9.352674586341093 25.19879201651691 4.66326209446304 0 0 0
347 1 10.911388843670299 26.098751901474163 3.1043042320707417 0 0 0
348 2 12.470170663377285 25.19879074988323 4.663189332462271 0 0 0
349 1 14.028937264399222 26.098749235793772 3.104288391331817 0 0 0
350 2 15.587688439512373 25.198792594635336 4.663218787099343 0 0 0
351 1 17.146482984294106 26.098747367192587 3.104335512006068 0 0 0
352 2 18.705246791956103 25.1987924716819 4.663255914067672 0 0 0
353 1 20.264025296808835 26.098747003218946 3.1043536183531395 0 0 0
354 1 23.381565197117723 26.098746998170476 3.1043480692412118 0 0 0
355 2 21.822797352527694 25.198789526576647 4.6632576444924805 0 0 0
356 1 26.499105435615565 26.098746885154572 3.104346348458505 0 0 0
357 2 24.940335814363127 25.198789719789985 4.66325334307803 0 0 0
358 1 29.616646647851457 26.098746814947756 3.104346636395273 0 0 0
359 2 28.057875843260742 25.198790004143937 4.66325310936429 0 0 0
360 2 31.175417443928303 25.198790006741735 4.663253249263818 0 0 0
362 2 4.676388299503256 27.89866304148015 4.663528258850769 0 0 0
363 1 3.1174334794120284 28.798564153398313 3.104758661585392 0 0 0
364 2 7.793911880719371 27.898661064572025 4.663337851049602 0 0 0
365 1 6.23505224836255 28.79862229793388 3.1045224676136836 0 0 0
366 1 9.352607873497613 28.798619860948808 3.1043530352828217 0 0 0
367 2 10.91142268453624 27.89866230728473 4.663210335726589 0 0 0
368 1 12.470162702885167 28.79862175217266 3.1042836410639296 0 0 0
369 2 14.028923087568298 27.89866060666015 4.663195903340517 0 0 0
370 1 15.58771046969719 28.798618302378248 3.1043110917062604 0 0 0
371 2 17.14646603292579 27.898663837593006 4.6632421715841375 0 0 0
372 1 18.705254765890704 28.79861745547924 3.10435031802513 0 0 0
373 2 20.264024817916734 27.898660916776716 4.66325958911122 0 0 0
374 2 23.381566921259427 27.898659775888337 4.663254886298418 0 0 0
375 1 21.822795421099755 28.798617368577375 3.1043511105080532 0 0 0
376 2 26.499105456047655 27.898660292480574 4.663253002425497 0 0 0
377 1 24.94033519434149 28.798617301962594 3.104346593546811 0 0 0
378 2 29.616646583830473 27.898660363486137 4.663253218568905 0 0 0
379 1 28.057875942090448 28.798617195167914 3.1043465090726787 0 0 0
380 1 31.175417459151927 28.79861715869822 3.1043466725067295 0 0 0
381 1 1.558700925676581 31.49851869052358 3.1048356880150676 0 0 0
382 1 4.676285988682063 31.49848155756554 3.1046247624754315 0 0 0
383 2 3.1176163575153537 30.598531532269785 4.663617163005319 0 0 0
384 1 7.793834462130377 31.498489041393924 3.10442767525211 0 0 0
385 2 6.235154188316788 30.598534402417364 4.663430322117966 0 0 0
386 2 9.352674586341088 30.59853272760406 4.663262094463023 0 0 0
387 1 10.911388843670299 31.498492612561297 3.1043042320707457 0 0 0
388 2 12.470170663377255 30.598531460970356 4.663189332462292 0 0 0
389 1 14.028937264399222 31.498489946880916 3.1042883913318287 0 0 0
390 2 15.587688439512357 30.598533305722448 4.66321878709935 0 0 0
391 1 17.146482984294106 31.498488078279717 3.1043355120060756 0 0 0
392 2 18.705246791956103 30.598533182769 4.663255914067666 0 0 0
393 1 20.264025296808835 31.498487714306087 3.1043536183531217 0 0 0
394 1 23.38156519711771 31.49848770925765 3.1043480692412064 0 0 0
395 2 21.822797352527694 30.598530237663752 4.663257644492472 0 0 0
396 1 26.49910543561557 31.498487596241713 3.1043463484584986 0 0 0
397 2 24.940335814363138 30.598530430877123 4.663253343078033 0 0 0
398 1 29.616646647851457 31.49848752603494 3.1043466363952645 0 0 0
399 2 28.05787584326072 30.59853071523109 4.663253109364275 0 0 0
400 2 31.175417443928314 30.598530717828837 4.663253249263817 0 0 0
402 2 4.676388299503242 33.298403752567225 4.663528258850752 0 0 0
403 1 3.1174334794119973 34.19830486448547 3.104758661585364 0 0 0
404 2 7.793911880719365 33.29840177565917 4.663337851049614 0 0 0
405 1 6.235052248362555 34.19836300902101 3.1045224676136853 0 0 0
406 1 9.352607873497602 34.198360572035924 3.10435303528283 0 0 0
407 2 10.911422684536245 33.298403018371864 4.663210335726598 0 0 0
408 1 12.470162702885162 34.19836246325977 3.10428364106393 0 0 0
409 2 14.028923087568316 33.29840131774728 4.663195903340506 0 0 0
410 1 15.58771046969719 34.19835901346542 3.1043110917062497 0 0 0
411 2 17.146466032925805 33.298404548680125 4.66324217158414 0 0 0
412 1 18.705254765890682 34.19835816656637 3.104350318025145 0 0 0
413 2 20.264024817916745 33.298401627863846 4.663259589111206 0 0 0
414 2 23.381566921259438 33.298400486975495 4.663254886298423 0 0 0
415 1 21.82279542109973 34.1983580796645 3.104351110508062 0 0 0
416 2 26.499105456047637 33.29840100356771 4.663253002425497 0 0 0
417 1 24.940335194341504 34.19835801304969 3.1043465935467975 0 0 0
418 2 29.61664658383042 33.29840107457327 4.663253218568899 0 0 0
419 1 28.057875942090448 34.198357906255055 3.1043465090726783 0 0 0
420 1 31.175417459151948 34.19835786978538 3.1043466725067215 0 0 0
421 1 1.5587009256766418 36.89825940161083 3.104835688015099 0 0 0
422 1 4.676285988682074 36.89822226865269 3.104624762475462 0 0 0
423 2 3.1176163575154536 35.99827224335682 4.663617163005366 0 0 0
424 1 7.793834462130367 36.898229752481036 3.104427675252104 0 0 0
425 2 6.235154188316794 35.99827511350448 4.66343032211797 0 0 0
426 2 9.352674586341076 35.99827343869122 4.663262094463049 0 0 0
427 1 10.911388843670295 36.898233323648434 3.104304232070757 0 0 0
428 2 12.47017066337729 35.99827217205747 4.66318933246229 0 0 0
429 1 14.028937264399211 36.89823065796806 3.1042883913318176 0 0 0
430 2 15.587688439512373 35.998274016809546 4.6632187870993365 0 0 0
431 1 17.146482984294096 36.89822878936688 3.1043355120060743 0 0 0
432 2 18.705246791956114 35.998273893856144 4.663255914067688 0 0 0
433 1 20.26402529680882 36.89822842539317 3.104353618353123 0 0 0
434 1 23.381565197117734 36.89822842034471 3.104348069241204 0 0 0
435 2 21.822797352527694 35.998270948750935 4.663257644492469 0 0 0
436 1 26.49910543561557 36.89822830732887 3.104346348458502 0 0 0
437 2 24.940335814363117 35.99827114196424 4.663253343078021 0 0 0
438 1 29.616646647851457 36.89822823712205 3.104346636395272 0 0 0
439 2 28.057875843260742 35.998271426318205 4.663253109364274 0 0 0
440 2 31.175417443928314 35.99827142891596 4.663253249263789 0 0 0
442 2 4.676388299503242 38.698144463654394 4.663528258850738 0 0 0
443 1 3.1174334794120186 39.59804557557263 3.1047586615853553 0 0 0
444 2 7.793911880719371 38.6981424867463 4.6633378510496 0 0 0
445 1 6.235052248362555 39.598103720108114 3.1045224676136893 0 0 0
446 1 9.352607873497618 39.59810128312307 3.104353035282818 0 0 0
447 2 10.911422684536264 38.69814372945899 4.663210335726575 0 0 0
448 1 12.47016270288515 39.59810317434691 3.1042836410639376 0 0 0
449 2 14.028923087568321 38.698142028834404 4.6631959033405295 0 0 0
450 1 15.587710469697198 39.598099724552526 3.1043110917062635 0 0 0