LAMMPS data file via write_data, version 2 Aug 2023, timestep = 368, units = metal

47584 atoms
3 atom types

0 1558.770635224613 xlo xhi
0 86.39583259922699 ylo yhi
0 50 zlo zhi
0 0 0 xy xz yz

Masses

1 95.94
2 32.065
3 32.065

Atoms # atomic

1 3 1.558769807501345 0.8999566429725084 1.545440340635117 0 0 0
2 3 4.676311077951406 0.8999566429728939 1.5454403406352317 0 0 0
3 3 7.793852348400644 0.8999566429729517 1.5454403406353396 0 0 0
4 3 10.91139361884984 0.8999566429730759 1.545440340635248 0 0 0
5 3 14.028934889299027 0.8999566429730169 1.5454403406352148 0 0 0
6 3 17.146476159748232 0.899956642972941 1.5454403406352557 0 0 0
7 3 20.264017430197512 0.8999566429730314 1.5454403406352812 0 0 0
8 3 23.381558700646693 0.8999566429730087 1.5454403406352217 0 0 0
9 3 26.49909997109596 0.8999566429729278 1.5454403406353523 0 0 0
10 3 29.61664124154515 0.8999566429730812 1.5454403406353043 0 0 0
11 3 3.1175404427258817 3.599826411699009 1.5454403406356203 0 0 0
12 3 6.235081713176001 3.5998264116988015 1.5454403406353932 0 0 0
13 3 9.352622983625233 3.5998264116987415 1.5454403406353638 0 0 0
14 3 12.47016425407441 3.5998264116987517 1.5454403406353545 0 0 0
15 3 15.587705524523669 3.599826411698759 1.545440340635337 0 0 0
16 3 18.70524679497282 3.599826411698776 1.5454403406354027 0 0 0
17 3 21.822788065422056 3.599826411698724 1.5454403406353618 0 0 0
18 3 24.94032933587127 3.5998264116987637 1.5454403406353738 0 0 0
19 3 28.057870606320513 3.599826411698783 1.545440340635351 0 0 0
20 3 31.175411876769747 3.599826411698759 1.545440340635383 0 0 0
21 3 1.558769807501286 6.299696180424022 1.5454403406352293 0 0 0
22 3 4.676311077951431 6.299696180424575 1.5454403406352208 0 0 0
23 3 7.7938523484005895 6.2996961804246 1.5454403406353128 0 0 0
24 3 10.911393618849793 6.299696180424619 1.5454403406353245 0 0 0
25 3 14.028934889299016 6.299696180424625 1.545440340635343 0 0 0
26 3 17.146476159748232 6.299696180424624 1.5454403406353143 0 0 0
27 3 20.26401743019747 6.299696180424631 1.5454403406353576 0 0 0
28 3 23.381558700646682 6.299696180424605 1.5454403406353296 0 0 0
29 3 26.499099971096 6.299696180424653 1.5454403406353259 0 0 0
30 3 29.616641241545192 6.299696180424629 1.5454403406353474 0 0 0
31 3 3.117540442725985 8.99956594915064 1.545440340635525 0 0 0
32 3 6.235081713176017 8.999565949150485 1.5454403406353963 0 0 0
33 3 9.352622983625233 8.999565949150478 1.5454403406353239 0 0 0
34 3 12.4701642540744 8.99956594915046 1.5454403406353523 0 0 0
35 3 15.587705524523669 8.999565949150474 1.5454403406353334 0 0 0
36 3 18.70524679497282 8.999565949150485 1.5454403406353667 0 0 0
37 3 21.82278806542209 8.999565949150464 1.545440340635351 0 0 0
38 3 24.94032933587131 8.999565949150478 1.5454403406353996 0 0 0
39 3 28.05787060632046 8.999565949150467 1.5454403406353072 0 0 0
40 3 31.175411876769747 8.999565949150456 1.545440340635365 0 0 0
41 3 1.5587698075013203 11.699435717875819 1.545440340635171 0 0 0
42 3 4.676311077951445 11.699435717876302 1.5454403406352497 0 0 0
43 3 7.793852348400628 11.699435717876316 1.5454403406353507 0 0 0
44 3 10.911393618849798 11.699435717876325 1.5454403406353485 0 0 0
45 3 14.028934889299027 11.699435717876309 1.545440340635329 0 0 0
46 3 17.146476159748232 11.69943571787631 1.54544034063535 0 0 0
47 3 20.26401743019749 11.699435717876318 1.5454403406353885 0 0 0
48 3 23.381558700646693 11.699435717876302 1.5454403406353356 0 0 0
49 3 26.49909997109596 11.69943571787633 1.5454403406353918 0 0 0
50 3 29.61664124154515 11.699435717876364 1.545440340635354 0 0 0
51 3 3.1175404427258946 14.399305486602389 1.545440340635647 0 0 0
52 3 6.235081713175994 14.399305486602215 1.5454403406353556 0 0 0
53 3 9.352622983625244 14.399305486602193 1.5454403406353212 0 0 0
54 3 12.470164254074394 14.39930548660218 1.5454403406353256 0 0 0
55 3 15.587705524523644 14.39930548660218 1.5454403406353485 0 0 0
56 3 18.70524679497282 14.3993054866022 1.5454403406353399 0 0 0
57 3 21.822788065422056 14.399305486602188 1.545440340635337 0 0 0
58 3 24.94032933587127 14.399305486602174 1.545440340635345 0 0 0
59 3 28.057870606320552 14.3993054866022 1.545440340635338 0 0 0
60 3 31.175411876769747 14.39930548660216 1.545440340635334 0 0 0
61 3 1.5587698075012937 17.099175255327395 1.5454403406352257 0 0 0
62 3 4.676311077951431 17.099175255328 1.545440340635195 0 0 0
63 3 7.793852348400628 17.099175255328014 1.5454403406353006 0 0 0
64 3 10.91139361884977 17.099175255327978 1.5454403406353399 0 0 0
65 3 14.028934889299022 17.099175255327978 1.545440340635325 0 0 0
66 3 17.146476159748243 17.099175255327964 1.5454403406352835 0 0 0
67 3 20.264017430197445 17.099175255328028 1.5454403406353314 0 0 0
68 3 23.381558700646693 17.099175255327957 1.5454403406353183 0 0 0
69 3 26.499099971095948 17.099175255328014 1.545440340635362 0 0 0
70 3 29.61664124154515 17.09917525532802 1.5454403406353263 0 0 0
71 3 3.117540442725985 19.79904502405402 1.5454403406354909 0 0 0
72 3 6.235081713176001 19.799045024053854 1.5454403406353692 0 0 0
73 3 9.352622983625238 19.799045024053886 1.545440340635323 0 0 0
74 3 12.470164254074405 19.799045024053804 1.545440340635342 0 0 0
75 3 15.587705524523644 19.799045024053772 1.5454403406353319 0 0 0
76 3 18.705246794972833 19.79904502405386 1.5454403406353374 0 0 0
77 3 21.822788065422056 19.799045024053868 1.5454403406353032 0 0 0
78 3 24.94032933587127 19.799045024053854 1.545440340635306 0 0 0
79 3 28.057870606320513 19.79904502405386 1.5454403406353445 0 0 0
80 3 31.175411876769747 19.79904502405383 1.5454403406353556 0 0 0
81 3 1.5587698075013021 22.498914792779182 1.5454403406352415 0 0 0
82 3 4.67631107795146 22.49891479277966 1.5454403406352524 0 0 0
83 3 7.793852348400618 22.498914792779704 1.54544034063538 0 0 0
84 3 10.911393618849782 22.49891479277973 1.5454403406353778 0 0 0
85 3 14.028934889299027 22.498914792779757 1.5454403406353907 0 0 0
86 3 17.146476159748243 22.49891479277973 1.545440340635324 0 0 0
87 3 20.264017430197512 22.49891479277969 1.5454403406354178 0 0 0
88 3 23.381558700646625 22.49891479277969 1.545440340635354 0 0 0
89 3 26.49909997109596 22.498914792779757 1.5454403406354682 0 0 0
90 3 29.61664124154513 22.49891479277969 1.5454403406354102 0 0 0
91 3 3.117540442725887 25.19878456150582 1.5454403406356054 0 0 0
92 3 6.235081713176001 25.19878456150564 1.545440340635352 0 0 0
93 3 9.352622983625238 25.19878456150566 1.5454403406353434 0 0 0
94 3 12.470164254074431 25.198784561505594 1.5454403406353248 0 0 0
95 3 15.5877055245237 25.1987845615056 1.5454403406353243 0 0 0
96 3 18.705246794972787 25.1987845615056 1.5454403406353812 0 0 0
97 3 21.822788065422056 25.198784561505573 1.5454403406352608 0 0 0
98 3 24.940329335871226 25.19878456150562 1.5454403406353374 0 0 0
99 3 28.05787060632048 25.198784561505565 1.5454403406353445 0 0 0
100 3 31.175411876769747 25.19878456150563 1.5454403406353088 0 0 0
101 3 1.5587698075013015 27.898654330230745 1.5454403406351807 0 0 0
102 3 4.676311077951423 27.898654330231267 1.5454403406352688 0 0 0
103 3 7.79385234840063 27.89865433023131 1.5454403406353603 0 0 0
104 3 10.911393618849793 27.89865433023139 1.5454403406353334 0 0 0
105 3 14.028934889299022 27.898654330231295 1.5454403406352923 0 0 0
106 3 17.146476159748232 27.898654330231253 1.5454403406353552 0 0 0
107 3 20.264017430197455 27.898654330231363 1.545440340635323 0 0 0
108 3 23.381558700646693 27.898654330231295 1.5454403406353403 0 0 0
109 3 26.49909997109596 27.89865433023135 1.545440340635416 0 0 0
110 3 29.61664124154515 27.89865433023131 1.5454403406353687 0 0 0
111 3 3.1175404427260696 30.59852409895743 1.5454403406355168 0 0 0
112 3 6.235081713176014 30.598524098957302 1.545440340635402 0 0 0
113 3 9.352622983625286 30.59852409895726 1.5454403406353612 0 0 0
114 3 12.470164254074405 30.598524098957302 1.5454403406353465 0 0 0
115 3 15.587705524523669 30.59852409895735 1.5454403406353487 0 0 0
116 3 18.70524679497282 30.598524098957302 1.545440340635385 0 0 0
117 3 21.822788065422046 30.598524098957302 1.5454403406354111 0 0 0
118 3 24.94032933587127 30.59852409895726 1.5454403406354082 0 0 0
119 3 28.05787060632046 30.598524098957302 1.5454403406353916 0 0 0
120 3 31.175411876769747 30.59852409895726 1.5454403406354271 0 0 0
121 3 1.5587698075013054 33.298393867682655 1.5454403406351371 0 0 0
122 3 4.6763110779514765 33.298393867683 1.5454403406352017 0 0 0
123 3 7.793852348400618 33.29839386768306 1.5454403406353345 0 0 0
124 3 10.911393618849832 33.298393867683025 1.5454403406353183 0 0 0
125 3 14.028934889299027 33.29839386768305 1.545440340635352 0 0 0
126 3 17.14647615974822 33.298393867683 1.5454403406352992 0 0 0
127 3 20.264017430197512 33.29839386768313 1.545440340635359 0 0 0
128 3 23.381558700646693 33.29839386768305 1.545440340635312 0 0 0
129 3 26.499099971095937 33.29839386768305 1.5454403406354007 0 0 0
130 3 29.61664124154515 33.298393867683174 1.5454403406353456 0 0 0
131 3 3.117540442725979 35.99826363640919 1.5454403406355606 0 0 0
132 3 6.235081713176048 35.9982636364091 1.5454403406353527 0 0 0
133 3 9.352622983625233 35.998263636409 1.5454403406353794 0 0 0
134 3 12.470164254074394 35.998263636409 1.54544034063535 0 0 0
135 3 15.587705524523674 35.99826363640905 1.5454403406353394 0 0 0
136 3 18.70524679497282 35.99826363640906 1.5454403406353612 0 0 0
137 3 21.82278806542203 35.99826363640905 1.5454403406353283 0 0 0
138 3 24.94032933587127 35.99826363640895 1.545440340635313 0 0 0
139 3 28.057870606320584 35.99826363640906 1.5454403406353532 0 0 0
140 3 31.175411876769747 35.998263636409 1.5454403406353463 0 0 0
141 3 1.5587698075013086 38.69813340513421 1.5454403406352268 0 0 0
142 3 4.676311077951474 38.69813340513482 1.5454403406351918 0 0 0
143 3 7.793852348400602 38.698133405134925 1.5454403406353718 0 0 0
144 3 10.911393618849793 38.69813340513499 1.5454403406353683 0 0 0
145 3 14.028934889299027 38.69813340513499 1.545440340635391 0 0 0
146 3 17.146476159748232 38.69813340513485 1.5454403406353612 0 0 0
147 3 20.26401743019748 38.69813340513482 1.545440340635435 0 0 0
148 3 23.381558700646647 38.69813340513499 1.545440340635442 0 0 0
149 3 26.49909997109591 38.69813340513499 1.5454403406353834 0 0 0
150 3 29.61664124154516 38.69813340513482 1.545440340635389 0 0 0
151 3 3.1175404427259763 41.39800317386078 1.5454403406355193 0 0 0
152 3 6.235081713176006 41.398003173860566 1.545440340635303 0 0 0
153 3 9.352622983625267 41.39800317386057 1.545440340635279 0 0 0
154 3 12.47016425407441 41.39800317386063 1.5454403406353103 0 0 0
155 3 15.587705524523674 41.39800317386059 1.545440340635279 0 0 0
156 3 18.70524679497282 41.39800317386075 1.5454403406353598 0 0 0
157 3 21.822788065422056 41.398003173860566 1.5454403406353185 0 0 0
158 3 24.94032933587128 41.39800317386059 1.5454403406352724 0 0 0
159 3 28.057870606320513 41.398003173860616 1.545440340635306 0 0 0
160 3 31.175411876769726 41.39800317386056 1.5454403406352841 0 0 0
161 2 1.5587698075013305 0.8999566429725318 4.663252992698175 0 0 0
162 2 4.676311077951449 0.8999566429728681 4.6632529926980935 0 0 0
163 1 3.1175404427260993 1.799913155127198 3.1043466666668085 0 0 0
164 2 7.79385234840061 0.8999566429729294 4.663252992698001 0 0 0
165 1 6.235081713176058 1.799913155127413 3.1043466666666806 0 0 0
166 1 9.352622983625283 1.7999131551274523 3.1043466666666717 0 0 0
167 2 10.911393618849798 0.8999566429730628 4.663252992698087 0 0 0
168 1 12.47016425407438 1.7999131551274594 3.1043466666666664 0 0 0
169 2 14.028934889299027 0.8999566429730069 4.663252992698057 0 0 0
170 1 15.587705524523628 1.7999131551274352 3.1043466666666872 0 0 0
171 2 17.146476159748232 0.899956642972935 4.663252992698097 0 0 0
172 1 18.705246794972766 1.7999131551273984 3.1043466666666717 0 0 0
173 2 20.264017430197512 0.8999566429730165 4.663252992698077 0 0 0
174 2 23.381558700646625 0.8999566429730078 4.663252992698121 0 0 0
175 1 21.822788065422046 1.7999131551274543 3.1043466666666935 0 0 0
176 2 26.49909997109596 0.899956642972899 4.663252992697971 0 0 0
177 1 24.94032933587126 1.7999131551274654 3.104346666666661 0 0 0
178 2 29.61664124154515 0.8999566429730748 4.66325299269805 0 0 0
179 1 28.057870606320463 1.7999131551274328 3.104346666666664 0 0 0
180 1 31.175411876769747 1.7999131551274337 3.1043466666666717 0 0 0
181 1 1.558769807502023 4.499782923853526 3.104346666666472 0 0 0
182 1 4.676311077951191 4.499782923853321 3.1043466666668094 0 0 0
183 2 3.1175404427259736 3.5998264116989334 4.663252992697806 0 0 0
184 1 7.79385234840061 4.499782923853276 3.1043466666666726 0 0 0
185 2 6.2350817131760685 3.59982641169881 4.663252992697956 0 0 0
186 2 9.352622983625233 3.5998264116987775 4.663252992697961 0 0 0
187 1 10.91139361884984 4.499782923853249 3.104346666666675 0 0 0
188 2 12.47016425407441 3.5998264116987655 4.663252992697976 0 0 0
189 1 14.028934889299006 4.499782923853264 3.1043466666666664 0 0 0
190 2 15.587705524523669 3.5998264116987673 4.6632529926979975 0 0 0
191 1 17.146476159748186 4.4997829238532905 3.104346666666679 0 0 0
192 2 18.70524679497282 3.5998264116988223 4.663252992697961 0 0 0
193 1 20.264017430197512 4.499782923853259 3.1043466666666695 0 0 0
194 1 23.38155870064677 4.499782923853324 3.1043466666666677 0 0 0
195 2 21.822788065422056 3.5998264116987433 4.663252992697978 0 0 0
196 1 26.499099971096022 4.499782923853259 3.1043466666666784 0 0 0
197 2 24.94032933587127 3.5998264116987757 4.663252992697961 0 0 0
198 1 29.61664124154512 4.4997829238532026 3.104346666666671 0 0 0
199 2 28.057870606320513 3.5998264116987997 4.663252992697984 0 0 0
200 2 31.175411876769747 3.5998264116987637 4.663252992697954 0 0 0
201 2 1.5587698075012737 6.299696180424166 4.663252992698185 0 0 0
202 2 4.676311077951462 6.299696180424601 4.6632529926981094 0 0 0
203 1 3.117540442726142 7.1996526925789155 3.104346666666792 0 0 0
204 2 7.793852348400595 6.299696180424624 4.663252992698017 0 0 0
205 1 6.23508171317604 7.1996526925790905 3.1043466666666744 0 0 0
206 1 9.352622983625233 7.199652692579118 3.1043466666666664 0 0 0
207 2 10.911393618849832 6.299696180424629 4.663252992698027 0 0 0
208 1 12.470164254074374 7.1996526925791535 3.1043466666666677 0 0 0
209 2 14.028934889299016 6.299696180424629 4.663252992698019 0 0 0
210 1 15.587705524523596 7.199652692579149 3.1043466666666695 0 0 0
211 2 17.146476159748232 6.299696180424623 4.663252992698011 0 0 0
212 1 18.70524679497272 7.199652692579053 3.1043466666666686 0 0 0
213 2 20.26401743019747 6.299696180424655 4.66325299269798 0 0 0
214 2 23.381558700646668 6.299696180424605 4.663252992698 0 0 0
215 1 21.822788065421943 7.199652692579118 3.1043466666666766 0 0 0
216 2 26.49909997109599 6.299696180424653 4.663252992698022 0 0 0
217 1 24.940329335871134 7.1996526925791295 3.1043466666666677 0 0 0
218 2 29.616641241545192 6.299696180424629 4.663252992697992 0 0 0
219 1 28.05787060632045 7.19965269257907 3.1043466666666726 0 0 0
220 1 31.175411876769704 7.199652692579135 3.104346666666683 0 0 0
221 1 1.5587698075019831 9.899522461305263 3.1043466666666997 0 0 0
222 1 4.676311077951233 9.899522461305054 3.1043466666666473 0 0 0
223 2 3.1175404427260087 8.99956594915067 4.663252992697803 0 0 0
224 1 7.79385234840063 9.899522461304969 3.1043466666666664 0 0 0
225 2 6.235081713176037 8.999565949150478 4.6632529926979585 0 0 0
226 2 9.352622983625205 8.999565949150478 4.663252992698008 0 0 0
227 1 10.91139361884984 9.89952246130502 3.1043466666666664 0 0 0
228 2 12.4701642540744 8.999565949150464 4.663252992698004 0 0 0
229 1 14.028934889299006 9.899522461304983 3.1043466666666677 0 0 0
230 2 15.587705524523669 8.99956594915046 4.663252992698009 0 0 0
231 1 17.146476159748186 9.899522461305047 3.104346666666675 0 0 0
232 2 18.70524679497282 8.999565949150481 4.663252992697984 0 0 0
233 1 20.26401743019757 9.899522461304986 3.1043466666666664 0 0 0
234 1 23.381558700646792 9.89952246130499 3.104346666666651 0 0 0
235 2 21.822788065422056 8.999565949150467 4.663252992697982 0 0 0
236 1 26.49909997109596 9.899522461304972 3.1043466666666957 0 0 0
237 2 24.9403293358713 8.999565949150474 4.663252992697943 0 0 0
238 1 29.61664124154515 9.899522461304908 3.1043466666666677 0 0 0
239 2 28.05787060632046 8.999565949150464 4.6632529926980375 0 0 0
240 2 31.175411876769747 8.999565949150456 4.663252992697985 0 0 0
241 2 1.5587698075013008 11.699435717875836 4.66325299269814 0 0 0
242 2 4.676311077951454 11.699435717876288 4.66325299269807 0 0 0
243 1 3.117540442726111 12.599392230030569 3.104346666666803 0 0 0
244 2 7.793852348400628 11.699435717876316 4.663252992697983 0 0 0
245 1 6.235081713176032 12.599392230030727 3.1043466666666877 0 0 0
246 1 9.352622983625224 12.599392230030741 3.1043466666666673 0 0 0
247 2 10.911393618849793 11.699435717876325 4.663252992697992 0 0 0
248 1 12.470164254074374 12.59939223003077 3.104346666666667 0 0 0
249 2 14.028934889299022 11.699435717876309 4.663252992697997 0 0 0
250 1 15.58770552452355 12.599392230030803 3.1043466666666664 0 0 0
251 2 17.146476159748232 11.699435717876318 4.663252992698001 0 0 0
252 1 18.705246794972787 12.599392230030693 3.104346666666686 0 0 0
253 2 20.26401743019749 11.699435717876316 4.663252992697966 0 0 0
254 2 23.381558700646693 11.699435717876302 4.663252992697998 0 0 0
255 1 21.822788065422 12.599392230030794 3.1043466666666757 0 0 0
256 2 26.49909997109596 11.69943571787633 4.663252992697941 0 0 0
257 1 24.940329335871258 12.599392230030796 3.1043466666666677 0 0 0
258 2 29.61664124154515 11.699435717876364 4.663252992697981 0 0 0
259 1 28.05787060632045 12.59939223003083 3.104346666666675 0 0 0
260 1 31.175411876769715 12.599392230030748 3.1043466666666664 0 0 0
261 1 1.5587698075020284 15.299261998756823 3.104346666666484 0 0 0
262 1 4.676311077951154 15.299261998756661 3.104346666666819 0 0 0
263 2 3.1175404427259594 14.39930548660232 4.663252992697803 0 0 0
264 1 7.79385234840061 15.29926199875661 3.10434666666667 0 0 0
265 2 6.235081713176048 14.399305486602207 4.663252992697995 0 0 0
266 2 9.352622983625238 14.399305486602215 4.663252992698015 0 0 0
267 1 10.911393618849832 15.299261998756702 3.104346666666667 0 0 0
268 2 12.470164254074394 14.39930548660218 4.663252992698012 0 0 0
269 1 14.02893488929898 15.299261998756702 3.1043466666666664 0 0 0
270 2 15.587705524523644 14.39930548660218 4.663252992698011 0 0 0
271 1 17.146476159748232 15.299261998756693 3.104346666666664 0 0 0
272 2 18.70524679497282 14.399305486602152 4.6632529926980055 0 0 0
273 1 20.264017430197615 15.29926199875661 3.104346666666661 0 0 0
274 1 23.38155870064676 15.299261998756728 3.104346666666675 0 0 0
275 2 21.822788065422056 14.39930548660218 4.66325299269798 0 0 0
276 1 26.499099971096022 15.299261998756617 3.1043466666666797 0 0 0
277 2 24.94032933587127 14.399305486602167 4.663252992698019 0 0 0
278 1 29.61664124154508 15.299261998756572 3.104346666666643 0 0 0
279 2 28.057870606320513 14.399305486602167 4.66325299269802 0 0 0
280 2 31.175411876769747 14.39930548660216 4.663252992697982 0 0 0
281 2 1.558769807501286 17.099175255327527 4.663252992698187 0 0 0
282 2 4.676311077951443 17.099175255327964 4.6632529926981405 0 0 0
283 1 3.117540442726138 17.99913176748228 3.1043466666667636 0 0 0
284 2 7.79385234840061 17.099175255328014 4.66325299269804 0 0 0
285 1 6.235081713176037 17.999131767482595 3.1043466666666717 0 0 0
286 1 9.352622983625258 17.999131767482545 3.104346666666652 0 0 0
287 2 10.911393618849793 17.099175255327978 4.663252992698025 0 0 0
288 1 12.470164254074405 17.99913176748257 3.1043466666666926 0 0 0
289 2 14.028934889299022 17.099175255327978 4.663252992698009 0 0 0
290 1 15.587705524523571 17.999131767482584 3.1043466666666664 0 0 0
291 2 17.146476159748243 17.099175255327978 4.663252992698051 0 0 0
292 1 18.705246794972766 17.99913176748252 3.1043466666666664 0 0 0
293 2 20.264017430197445 17.09917525532804 4.663252992698011 0 0 0
294 2 23.381558700646693 17.099175255327957 4.663252992698012 0 0 0
295 1 21.822788065422 17.999131767482577 3.1043466666666664 0 0 0
296 2 26.499099971095948 17.099175255328028 4.663252992698004 0 0 0
297 1 24.94032933587121 17.999131767482602 3.1043466666666677 0 0 0
298 2 29.61664124154515 17.09917525532804 4.663252992697993 0 0 0
299 1 28.05787060632041 17.99913176748253 3.104346666666667 0 0 0
300 1 31.175411876769683 17.999131767482545 3.1043466666666637 0 0 0
301 1 1.5587698075019902 20.699001536208677 3.1043466666666983 0 0 0
302 1 4.676311077951204 20.69900153620839 3.1043466666666735 0 0 0
303 2 3.1175404427260163 19.7990450240541 4.663252992697825 0 0 0
304 1 7.793852348400638 20.69900153620842 3.1043466666666615 0 0 0
305 2 6.235081713176025 19.799045024053854 4.663252992697943 0 0 0
306 2 9.352622983625238 19.799045024053765 4.6632529926980135 0 0 0
307 1 10.91139361884984 20.69900153620836 3.1043466666666752 0 0 0
308 2 12.470164254074394 19.799045024053804 4.6632529926979975 0 0 0
309 1 14.028934889299016 20.69900153620839 3.1043466666666815 0 0 0
310 2 15.587705524523658 19.799045024053886 4.663252992698016 0 0 0
311 1 17.146476159748175 20.69900153620842 3.1043466666666695 0 0 0
312 2 18.70524679497282 19.79904502405388 4.663252992698008 0 0 0
313 1 20.264017430197512 20.69900153620842 3.1043466666666792 0 0 0
314 1 23.381558700646806 20.699001536208407 3.1043466666666664 0 0 0
315 2 21.822788065422046 19.79904502405381 4.663252992698041 0 0 0
316 1 26.49909997109591 20.69900153620836 3.104346666666669 0 0 0
317 2 24.94032933587127 19.799045024053854 4.663252992698023 0 0 0
318 1 29.61664124154508 20.699001536208442 3.1043466666666775 0 0 0
319 2 28.057870606320513 19.799045024053886 4.663252992697991 0 0 0
320 2 31.175411876769747 19.799045024053772 4.663252992697976 0 0 0
321 2 1.55876980750129 22.498914792779185 4.663252992698111 0 0 0
322 2 4.67631107795148 22.49891479277966 4.663252992698064 0 0 0
323 1 3.1175404427260847 23.398871304933973 3.104346666666795 0 0 0
324 2 7.793852348400595 22.49891479277973 4.663252992697974 0 0 0
325 1 6.235081713176017 23.398871304934154 3.1043466666666744 0 0 0
326 1 9.352622983625272 23.39887130493414 3.1043466666666504 0 0 0
327 2 10.911393618849798 22.49891479277973 4.663252992697968 0 0 0
328 1 12.470164254074394 23.39887130493418 3.104346666666679 0 0 0
329 2 14.028934889299027 22.49891479277973 4.663252992697966 0 0 0
330 1 15.587705524523658 23.398871304934207 3.1043466666666824 0 0 0
331 2 17.146476159748243 22.49891479277973 4.663252992698001 0 0 0
332 1 18.7052467949728 23.39887130493414 3.1043466666666677 0 0 0
333 2 20.264017430197512 22.49891479277969 4.6632529926979105 0 0 0
334 2 23.381558700646625 22.49891479277969 4.663252992698 0 0 0
335 1 21.82278806542199 23.398871304934193 3.1043466666666424 0 0 0
336 2 26.49909997109596 22.498914792779757 4.663252992697938 0 0 0
337 1 24.94032933587129 23.39887130493418 3.1043466666666775 0 0 0
338 2 29.61664124154508 22.49891479277969 4.663252992697914 0 0 0
339 1 28.057870606320584 23.39887130493414 3.104346666666673 0 0 0
340 1 31.17541187676987 23.398871304934207 3.104346666666682 0 0 0
341 1 1.5587698075020309 26.098741073660175 3.1043466666665047 0 0 0
342 1 4.676311077951168 26.098741073660108 3.104346666666824 0 0 0
343 2 3.117540442725948 25.198784561505757 4.663252992697817 0 0 0
344 1 7.793852348400633 26.098741073660026 3.1043466666666704 0 0 0
345 2 6.235081713176056 25.19878456150564 4.6632529926979895 0 0 0
346 2 9.352622983625233 25.198784561505594 4.663252992698013 0 0 0
347 1 10.911393618849765 26.09874107366005 3.1043466666666664 0 0 0
348 2 12.470164254074431 25.198784561505594 4.663252992697986 0 0 0
349 1 14.028934889299011 26.098741073660094 3.1043466666666784 0 0 0
350 2 15.5877055245237 25.1987845615056 4.663252992698004 0 0 0
351 1 17.146476159748243 26.098741073660094 3.1043466666666664 0 0 0
352 2 18.705246794972787 25.1987845615056 4.663252992697969 0 0 0
353 1 20.264017430197537 26.09874107365997 3.1043466666666846 0 0 0
354 1 23.381558700646885 26.098741073660175 3.1043466666666606 0 0 0
355 2 21.822788065422056 25.198784561505587 4.663252992698033 0 0 0
356 1 26.499099971096012 26.098741073660122 3.1043466666666997 0 0 0
357 2 24.94032933587127 25.19878456150563 4.663252992697985 0 0 0
358 1 29.61664124154515 26.098741073660094 3.1043466666666664 0 0 0
359 2 28.05787060632048 25.198784561505573 4.663252992698038 0 0 0
360 2 31.175411876769747 25.198784561505573 4.663252992697997 0 0 0
361 2 1.5587698075013112 27.89865433023087 4.663252992698182 0 0 0
362 2 4.676311077951452 27.898654330231267 4.6632529926981 0 0 0
363 1 3.1175404427260878 28.798610842385663 3.1043466666668076 0 0 0
364 2 7.793852348400613 27.89865433023131 4.663252992697983 0 0 0
365 1 6.235081713176056 28.798610842385813 3.1043466666666673 0 0 0
366 1 9.352622983625283 28.798610842385827 3.1043466666666664 0 0 0
367 2 10.911393618849793 27.89865433023139 4.663252992698004 0 0 0
368 1 12.470164254074348 28.798610842385827 3.1043466666666664 0 0 0
369 2 14.028934889299022 27.898654330231295 4.663252992698046 0 0 0
370 1 15.587705524523566 28.79861084238587 3.1043466666666686 0 0 0
371 2 17.146476159748232 27.898654330231253 4.66325299269798 0 0 0
372 1 18.70524679497272 28.798610842385866 3.104346666666681 0 0 0
373 2 20.264017430197512 27.898654330231363 4.663252992698016 0 0 0
374 2 23.381558700646693 27.898654330231295 4.663252992697999 0 0 0
375 1 21.822788065421964 28.79861084238591 3.104346666666661 0 0 0
376 2 26.49909997109596 27.898654330231363 4.663252992697931 0 0 0
377 1 24.940329335871322 28.798610842385813 3.1043466666666766 0 0 0
378 2 29.61664124154515 27.89865433023131 4.663252992697975 0 0 0
379 1 28.057870606320463 28.798610842385855 3.1043466666666744 0 0 0
380 1 31.175411876769672 28.79861084238599 3.104346666666673 0 0 0
381 1 1.5587698075019571 31.498480611111848 3.104346666666685 0 0 0
382 1 4.676311077951157 31.498480611111738 3.10434666666664 0 0 0
383 2 3.1175404427260722 30.598524098957427 4.663252992697842 0 0 0
384 1 7.793852348400605 31.498480611111685 3.1043466666666664 0 0 0
385 2 6.235081713176027 30.598524098957274 4.663252992697982 0 0 0
386 2 9.352622983625238 30.59852409895726 4.663252992697955 0 0 0
387 1 10.911393618849804 31.49848061111167 3.104346666666661 0 0 0
388 2 12.470164254074405 30.598524098957302 4.663252992697952 0 0 0
389 1 14.028934889299016 31.4984806111117 3.1043466666666744 0 0 0
390 2 15.587705524523644 30.59852409895735 4.663252992697993 0 0 0
391 1 17.146476159748154 31.49848061111178 3.104346666666664 0 0 0
392 2 18.70524679497282 30.598524098957302 4.663252992697942 0 0 0
393 1 20.264017430197605 31.498480611111727 3.1043466666666872 0 0 0
394 1 23.38155870064677 31.4984806111117 3.1043466666666673 0 0 0
395 2 21.822788065422046 30.598524098957302 4.663252992697936 0 0 0
396 1 26.49909997109596 31.498480611111646 3.1043466666666664 0 0 0
397 2 24.94032933587127 30.59852409895726 4.663252992697916 0 0 0
398 1 29.61664124154515 31.498480611111574 3.1043466666666664 0 0 0
399 2 28.05787060632046 30.598524098957302 4.663252992697966 0 0 0
400 2 31.175411876769736 30.59852409895726 4.663252992697932 0 0 0
401 2 1.558769807501339 33.298393867682655 4.663252992698137 0 0 0
402 2 4.67631107795146 33.298393867682954 4.663252992698047 0 0 0
403 1 3.117540442726102 34.198350379837414 3.104346666666756 0 0 0
404 2 7.79385234840063 33.29839386768305 4.663252992698032 0 0 0
405 1 6.235081713176053 34.19835037983755 3.1043466666666575 0 0 0
406 1 9.352622983625167 34.19835037983755 3.1043466666666717 0 0 0
407 2 10.911393618849804 33.29839386768313 4.663252992698006 0 0 0
408 1 12.470164254074342 34.198350379837564 3.1043466666666713 0 0 0
409 2 14.028934889299027 33.29839386768306 4.663252992697974 0 0 0
410 1 15.587705524523644 34.19835037983755 3.1043466666666553 0 0 0
411 2 17.146476159748243 33.298393867683 4.663252992698025 0 0 0
412 1 18.705246794972744 34.198350379837564 3.104346666666647 0 0 0
413 2 20.264017430197512 33.2983938676831 4.663252992698013 0 0 0
414 2 23.381558700646682 33.298393867683096 4.6632529926980215 0 0 0
415 1 21.822788065422 34.19835037983755 3.1043466666666766 0 0 0
416 2 26.49909997109596 33.29839386768312 4.663252992697956 0 0 0
417 1 24.94032933587135 34.198350379837564 3.104346666666678 0 0 0
418 2 29.61664124154515 33.298393867683174 4.663252992697991 0 0 0
419 1 28.057870606320492 34.19835037983764 3.1043466666666815 0 0 0
420 1 31.175411876769715 34.19835037983755 3.104346666666661 0 0 0
421 1 1.5587698075019474 36.89822014856355 3.1043466666663826 0 0 0
422 1 4.676311077951247 36.898220148563404 3.1043466666667667 0 0 0
423 2 3.1175404427260425 35.998263636409206 4.6632529926977915 0 0 0
424 1 7.793852348400657 36.89822014856339 3.1043466666666673 0 0 0
425 2 6.235081713176066 35.998263636409 4.663252992697948 0 0 0
426 2 9.352622983625233 35.99826363640905 4.663252992697964 0 0 0
427 1 10.91139361884984 36.898220148563375 3.1043466666666846 0 0 0
428 2 12.470164254074394 35.998263636409 4.66325299269799 0 0 0
429 1 14.028934889299027 36.898220148563404 3.104346666666684 0 0 0
430 2 15.587705524523674 35.99826363640905 4.663252992697973 0 0 0
431 1 17.146476159748165 36.898220148563254 3.1043466666666553 0 0 0
432 2 18.705246794972876 35.99826363640906 4.663252992697986 0 0 0
433 1 20.2640174301975 36.89822014856324 3.1043466666667343 0 0 0
434 1 23.38155870064674 36.898220148563496 3.1043466666666766 0 0 0
435 2 21.822788065422046 35.99826363640897 4.663252992698011 0 0 0
436 1 26.49909997109592 36.898220148563404 3.1043466666666784 0 0 0
437 2 24.94032933587127 35.99826363640895 4.6632529926980215 0 0 0
438 1 29.61664124154512 36.898220148563226 3.104346666666678 0 0 0
439 2 28.057870606320513 35.99826363640906 4.663252992698002 0 0 0
440 2 31.175411876769747 35.998263636409014 4.663252992697978 0 0 0
441 2 1.5587698075013359 38.6981334051344 4.663252992698149 0 0 0
442 2 4.67631107795146 38.69813340513485 4.663252992698102 0 0 0
443 1 3.1175404427261406 39.59808991728904 3.1043466666667454 0 0 0