LAMMPS data file via write_data, version 21 Nov 2023, timestep = 148, units = metal

47841 atoms
3 atom types

0 1558.7707853893078 xlo xhi
0 86.39584739618871 ylo yhi
0 50 zlo zhi
0 0 0 xy xz yz

Masses

1 95.94
2 32.065
3 32.065

Atoms # atomic

47841 3 1.5587691927689864 0.8999573711291173 1.545436061808939 0 0 0
35284 3 4.6763120885631 0.8999538595167704 1.5454359839636502 0 0 0
35285 3 7.793853128389628 0.899950895085003 1.545436607201078 0 0 0
35286 3 10.91139381594465 0.8999484685323396 1.5454352065660981 0 0 0
35287 3 14.02893566182485 0.8999467876847219 1.5454329458425327 0 0 0
35288 3 17.146478059085272 0.8999467874655301 1.5454329461450558 0 0 0
35289 3 20.26401990056645 0.8999484658129387 1.5454352065209378 0 0 0
35291 3 23.38156057355138 0.8999508917232095 1.545436594823398 0 0 0
35298 3 26.49910161899464 0.8999538680568906 1.5454359527046024 0 0 0
35292 3 29.616644557453384 0.8999573504148878 1.5454360824338913 0 0 0
35293 3 3.1175401624968218 3.5998279843968777 1.545437698328277 0 0 0
35294 3 6.235081925357338 3.5998271260121806 1.5454366722812891 0 0 0
35295 3 9.35262314772927 3.599826649466622 1.5454353059242263 0 0 0
35296 3 12.470164752064582 3.5998266648682793 1.545433125564268 0 0 0
35297 3 15.587706860227016 3.5998267794989642 1.5454320030687323 0 0 0
35283 3 18.705248962059354 3.599826660189331 1.5454331230505207 0 0 0
35282 3 21.822790553585513 3.59982663701648 1.5454352889044571 0 0 0
35281 3 24.94033178750013 3.5998271214918365 1.5454366674634081 0 0 0
35280 3 28.057873562499193 3.5998279860190854 1.545437774537566 0 0 0
35279 3 31.175415354583322 3.599828012464951 1.5454397990728679 0 0 0
35278 3 1.5587696119127663 6.299697944009183 1.5454404560451467 0 0 0
35277 3 4.676311337945738 6.299698466488248 1.5454397679367395 0 0 0
35276 3 7.79385293043747 6.299698719927419 1.5454395409385069 0 0 0
35275 3 10.911394364274635 6.299699267863873 1.5454390269556584 0 0 0
35274 3 14.028935998253813 6.299699786209441 1.5454384247763135 0 0 0
35273 3 17.146477711908005 6.29969977996131 1.54543841863242 0 0 0
35272 3 20.264019342691103 6.299699259257031 1.5454390053222047 0 0 0
35271 3 23.381560831727402 6.299698735356632 1.5454396019971044 0 0 0
35270 3 26.49910242326266 6.29969848580626 1.5454400616770445 0 0 0
35269 3 29.616643996542333 6.299697811018645 1.5454408298626867 0 0 0
35268 3 3.1175405526613185 8.99956763670782 1.54544068855089 0 0 0
35267 3 6.235082193306562 8.999567787132968 1.5454408136513076 0 0 0
35290 3 9.352623743933835 8.999567801031963 1.5454410966832126 0 0 0
35300 3 12.470165244275234 8.999567954125299 1.5454411949434532 0 0 0
35325 3 15.587706847038094 8.999568052943957 1.5454411751355075 0 0 0
35301 3 18.705248467264255 8.999567950772825 1.5454411675555593 0 0 0
35319 3 21.822790053077355 8.999567838015851 1.5454412216527258 0 0 0
35320 3 24.940331441533736 8.99956770995909 1.5454411989163475 0 0 0
35321 3 28.057872700295587 8.999567201859483 1.5454407908462828 0 0 0
35322 3 31.17541419116803 8.999566412093095 1.5454399950879407 0 0 0
35323 3 1.5587698094975586 11.699437659476958 1.545440459586298 0 0 0
35324 3 4.676311379990994 11.699437643863536 1.5454404304908762 0 0 0
35326 3 7.793852947258778 11.699437587719226 1.545440530847873 0 0 0
35333 3 10.911394497514845 11.699437501266468 1.5454406377110474 0 0 0
35327 3 14.028936044025883 11.699437478753833 1.5454406540962837 0 0 0
35328 3 17.14647766162526 11.699437489086394 1.5454406390508004 0 0 0
35329 3 20.26401932726337 11.699437575469807 1.5454408291595934 0 0 0
35330 3 23.38156050812236 11.699437469191006 1.5454409517932957 0 0 0
35331 3 26.49910135947288 11.69943701130033 1.5454397631058934 0 0 0
35332 3 29.616643308306557 11.699436787488771 1.5454375839595544 0 0 0
35318 3 3.117540625377122 14.399307951069268 1.5454402949493882 0 0 0
35317 3 6.235082156818272 14.399307956194246 1.5454403080824344 0 0 0
35316 3 9.35262371990081 14.399307950409536 1.5454403062405753 0 0 0
35315 3 12.470165273499532 14.39930793603123 1.545440292507722 0 0 0
35314 3 15.587706861753455 14.399307944279522 1.5454402690689175 0 0 0
35313 3 18.705248569244965 14.39930802186731 1.545440531897016 0 0 0
35312 3 21.822789682910393 14.39930779683397 1.5454407800691259 0 0 0
35311 3 24.940330391413266 14.3993073118584 1.5454390844545278 0 0 0
35310 3 28.057873252869545 14.3993079940337 1.5454361272292163 0 0 0
35309 3 31.175416898383084 14.399310393717052 1.54543539233563 0 0 0
35308 3 1.5587698435978365 17.09917817713407 1.5454403059492738 0 0 0
35307 3 4.676311377899564 17.099178176599263 1.5454403332388917 0 0 0
35306 3 7.793852932950412 17.099178179146573 1.5454403373050334 0 0 0
35305 3 10.911394492832514 17.099178177478205 1.5454403281699833 0 0 0
35304 3 14.028936066906478 17.09917818038498 1.5454403047543304 0 0 0
35303 3 17.1464777622452 17.099178239407813 1.545440523680618 0 0 0
35302 3 20.2640189249391 17.099177984354668 1.545440808446773 0 0 0
35266 3 23.381559590360112 17.099177487150055 1.5454389303233877 0 0 0
35265 3 26.4991034753797 17.099178914688792 1.5454359096203631 0 0 0
35264 3 29.616649277210666 17.09918290827642 1.5454377884530903 0 0 0
35255 3 3.1175405962834812 19.799048397734573 1.5454403369403749 0 0 0
35227 3 6.235082149115874 19.79904839071737 1.5454403480704206 0 0 0
35226 3 9.352623711329771 19.799048386744875 1.545440344800428 0 0 0
35225 3 12.4701652749436 19.799048382422836 1.5454403260698237 0 0 0
35224 3 15.587706929156969 19.79904843609139 1.5454404728812623 0 0 0
35223 3 18.705248192182314 19.799048213928174 1.5454407677355229 0 0 0
35222 3 21.82278885292346 19.79904768599131 1.5454391204599436 0 0 0
35221 3 24.940332774016444 19.799048985313643 1.545435916796688 0 0 0
35220 3 28.057880936173767 19.799052888159878 1.545439620890355 0 0 0
35219 3 31.1754268754527 19.799058832112674 1.5454524873258029 0 0 0
35218 3 1.558769811319955 22.49891863120969 1.545440334195902 0 0 0
35217 3 4.676311364231408 22.498918620911567 1.5454403459764734 0 0 0
35216 3 7.7938529287281675 22.498918618484428 1.5454403444655593 0 0 0
35215 3 10.911394483119457 22.498918609569234 1.5454403280923303 0 0 0
35214 3 14.028936104872257 22.498918644759947 1.5454404054711277 0 0 0
35228 3 17.14647752250001 22.49891857068411 1.5454407219959843 0 0 0
35213 3 20.26401815646865 22.498918056349137 1.5454396576720126 0 0 0
35211 3 23.381560879194886 22.4989186901479 1.5454361483223245 0 0 0
35210 3 26.49910913919834 22.498920879984865 1.5454377912932118 0 0 0
35209 3 29.61665905429304 22.49892392911407 1.5454524863773682 0 0 0
35208 3 3.117540579145351 25.19878885116831 1.5454403475635348 0 0 0
35207 3 6.235082146369188 25.198788850322163 1.5454403467315514 0 0 0
35206 3 9.35262370095305 25.1987888458764 1.5454403379418364 0 0 0
35205 3 12.470165270648081 25.198788846244824 1.5454403402481076 0 0 0
35204 3 15.587706876072811 25.198788863460262 1.5454406234637132 0 0 0
35203 3 18.70524780681146 25.19878864753514 1.5454404431466142 0 0 0
35202 3 21.82278892351039 25.198788742352207 1.5454375277294494 0 0 0
35201 3 24.94033478060606 25.19878951965216 1.5454354094202694 0 0 0
35200 3 28.057885604245072 25.198789534519157 1.5454441609061111 0 0 0
35199 3 31.17544037342707 25.198789849430124 1.54546766789667 0 0 0
35198 3 1.558769798093479 27.898659066979462 1.545440339155112 0 0 0
35212 3 4.676311367563154 27.898659071270902 1.545440341974341 0 0 0
35229 3 7.793852930519982 27.898659076110828 1.5454403434913668 0 0 0
35230 3 10.911394468833555 27.89865907648513 1.5454403253798885 0 0 0
35231 3 14.02893604595777 27.898659072939086 1.545440401682048 0 0 0
35249 3 17.14647750434387 27.898659047715686 1.54544077003536 0 0 0
35250 3 20.264018043569198 27.898659139512155 1.5454397226660261 0 0 0
35251 3 23.381559908914724 27.898659347969936 1.545435892208859 0 0 0
35252 3 26.499107579966196 27.898658502158394 1.5454367742814534 0 0 0
35253 3 29.616656133681946 27.898655503033982 1.5454498197101407 0 0 0
35254 3 3.117540602347534 30.598529268873154 1.545440317216615 0 0 0
35256 3 6.235082169492068 30.59852928368436 1.545440326558742 0 0 0
35263 3 9.352623720405418 30.598529301354358 1.545440334680821 0 0 0
35257 3 12.470165242577927 30.59852931098887 1.5454403166507733 0 0 0
35258 3 15.58770682218046 30.598529295579517 1.5454404754428481 0 0 0
35259 3 18.705248108878504 30.598529368209178 1.5454408636719053 0 0 0
35260 3 21.822788406385982 30.598529787980404 1.5454391395948124 0 0 0
35261 3 24.940330928848653 30.598529742219785 1.5454352016227049 0 0 0
35262 3 28.057877954738863 30.59852653510981 1.545437827035908 0 0 0
35248 3 31.175423904986964 30.59852052601661 1.5454498150200555 0 0 0
35247 3 1.5587698275388775 33.29839951965366 1.5454404746753616 0 0 0
35246 3 4.676311385547105 33.29839952387114 1.5454404015718624 0 0 0
35245 3 7.79385294649867 33.29839953081017 1.545440339644306 0 0 0
35244 3 10.911394507706282 33.29839953554639 1.5454403214596875 0 0 0
35243 3 14.02893603009272 33.29839955010853 1.5454403058902757 0 0 0
35242 3 17.146477627162206 33.298399542208884 1.5454405468680663 0 0 0
35241 3 20.264018813459703 33.298399706175914 1.5454409284523607 0 0 0
35240 3 23.381559195671194 33.29840046381543 1.5454388947639313 0 0 0
35239 3 26.49910166478487 33.29839988786983 1.5454352007739887 0 0 0
35238 3 29.61664703463871 33.298395308155456 1.5454367718759112 0 0 0
35237 3 3.117540679180414 35.99826967017033 1.545440771955743 0 0 0
35236 3 6.235082129934082 35.99826978335256 1.5454406234756832 0 0 0
35235 3 9.352623681451242 35.9982697898869 1.5454404073241657 0 0 0
35234 3 12.47016528537819 35.99826977514017 1.5454403149038047 0 0 0
35233 3 15.587706824299351 35.99826979165216 1.5454403036057318 0 0 0
35232 3 18.705248426268906 35.99826977869078 1.545440585699772 0 0 0
35299 3 21.82278966067916 35.99827004450031 1.5454409296012346 0 0 0
35334 3 24.94033036405957 35.998270920501554 1.5454391397057883 0 0 0
35335 3 28.057872469374583 35.99827040172147 1.5454358927475733 0 0 0
35336 3 31.17541571810477 35.998266651646574 1.5454353927441156 0 0 0
35424 3 1.5587703436340807 38.69813895434493 1.5454397136827314 0 0 0
35425 3 4.67631185248927 38.69813956774264 1.545440442749851 0 0 0
35426 3 7.79385303806423 38.6981399249368 1.5454407219840876 0 0 0
35427 3 10.911394429257207 38.6981400445616 1.5454404711598309 0 0 0
35428 3 14.02893606501924 38.69814001411711 1.5454403076265149 0 0 0
35429 3 17.14647761667077 38.69814002803807 1.5454402996463477 0 0 0
35431 3 20.264019209822415 38.69814002409567 1.5454405470796524 0 0 0
35438 3 23.381560578703954 38.69814025871592 1.5454408626855858 0 0 0
35432 3 26.49910171874716 38.69814099215862 1.5454397231311594 0 0 0
35433 3 29.616643462213997 38.6981409843628 1.545437517290819 0 0 0
35434 3 3.1175412249108567 41.39800935118487 1.5454375194540608 0 0 0
35435 3 6.235083167280823 41.39800960183924 1.5454396594081008 0 0 0
35436 3 9.352623991525432 41.39801011948837 1.5454407663773746 0 0 0
35437 3 12.47016518422788 41.39801031289953 1.545440539371126 0 0 0
35423 3 15.587706845385028 41.3980102526203 1.5454403124043807 0 0 0
35422 3 18.70524841090331 41.39801026993154 1.5454403005788422 0 0 0
35421 3 21.822789998861666 41.39801027979152 1.5454404762120668 0 0 0
35420 3 24.94033152772122 41.39801037454952 1.5454407706883602 0 0 0
35419 3 28.057872987482146 41.398010866979256 1.545440433970961 0 0 0
35418 3 31.1754146137639 41.39801140391761 1.545439618789193 0 0 0
29820 2 1.5587709829397134 0.8999551055261549 4.663249277568558 0 0 0
11129 1 3.1175411408874507 1.7999126678424393 3.1043424516444427 0 0 0
29819 2 4.676311735167881 0.8999559738863889 4.663249086930691 0 0 0
11131 1 6.235082696546847 1.7999120343900206 3.104342268625384 0 0 0
29818 2 7.793853643470171 0.8999573511714393 4.663249685750721 0 0 0
11132 1 9.352624182130691 1.799911431679495 3.1043413297693423 0 0 0
11134 1 12.47016574840845 1.7999106055981695 3.1043384229842115 0 0 0
29817 2 10.911395872751667 0.8999580588680872 4.663248136407998 0 0 0
11136 1 15.587706860417063 1.7999102574496455 3.104336674887025 0 0 0
29816 2 14.02893697502899 0.8999574538384482 4.6632459136549596 0 0 0
11137 1 18.705247971227152 1.7999106046434739 3.1043384239806344 0 0 0
29815 2 17.146476745456386 0.8999574536433793 4.663245914005834 0 0 0
29814 2 20.264017846257516 0.8999580585760124 4.66324813703689 0 0 0
11140 1 21.822789531435532 1.7999114262535416 3.1043413252029617 0 0 0
29813 2 23.381560071809236 0.8999573492710918 4.663249676610843 0 0 0
11142 1 24.9403310066452 1.7999120188391318 3.104342245331777 0 0 0
29812 2 26.499101961514125 0.8999559740416246 4.6632490633005705 0 0 0
11144 1 28.057872578274328 1.7999126246030426 3.1043424449152477 0 0 0
29811 2 29.61664278415428 0.8999551568702946 4.6632492998135175 0 0 0
11145 1 31.175414522544187 1.7999133804146057 3.1043449595260766 0 0 0
11146 1 1.5587699903821275 4.499783694132578 3.104346168484224 0 0 0
11147 1 4.676311506929611 4.499783472307386 3.104344646027022 0 0 0
29810 2 3.1175413348383616 3.599825063557505 4.663250922389981 0 0 0
11149 1 7.793853050801845 4.499783193144597 3.104343682045222 0 0 0
29809 2 6.23508253442722 3.599825090408556 4.663249844933697 0 0 0
29808 2 9.352624477835331 3.599824664686675 4.663248418159675 0 0 0
11118 1 10.911394711605357 4.499782801745954 3.104342128425827 0 0 0
29807 2 12.470166200548464 3.5998234088367322 4.663246183708566 0 0 0
11102 1 14.028936198525773 4.499782604316881 3.1043405988555253 0 0 0
29806 2 15.587706859879944 3.599822763372341 4.66324506383697 0 0 0
11090 1 17.14647752072965 4.499782603070172 3.104340599557741 0 0 0
29646 2 18.705247520141327 3.5998234083668357 4.663246181649772 0 0 0
11092 1 20.264019001379257 4.499782793838013 3.1043421165053378 0 0 0
11093 1 23.381560647073435 4.499783162783409 3.104343667599072 0 0 0
29836 2 21.822789231949876 3.599824651266094 4.6632484036596695 0 0 0
11095 1 26.49910218277948 4.499783402863459 3.1043447236463817 0 0 0
29645 2 24.94033112616576 3.599825026173915 4.663249845442911 0 0 0
11097 1 29.616643733351943 4.499783551325997 3.104346357447302 0 0 0
29578 2 28.057872309585974 3.5998249129705644 4.663251005418541 0 0 0
29479 2 31.17541393930364 3.5998259107554116 4.663253086437437 0 0 0
29478 2 1.5587701091883326 6.299696653244807 4.663253757463207 0 0 0
11103 1 3.1175406045796485 7.199654093845431 3.104347221989744 0 0 0
29477 2 4.676311385543143 6.299695965518427 4.66325305341276 0 0 0
11104 1 6.235082140394112 7.199654057857855 3.1043471477967106 0 0 0
29476 2 7.7938528959110185 6.299695420676065 4.6632527920794535 0 0 0
11105 1 9.352623741551437 7.199653940808211 3.1043472182475695 0 0 0
11106 1 12.47016531048429 7.199653878935258 3.104347053143891 0 0 0
29475 2 10.911394702632691 6.299694399877155 4.663252249262964 0 0 0
11108 1 15.587706858424061 7.199653874119884 3.10434694701164 0 0 0
29474 2 14.02893619237637 6.299693683045301 4.663251634720179 0 0 0
11110 1 18.705248399818675 7.19965387077133 3.10434703051236 0 0 0
29473 2 17.146477529060178 6.299693683888092 4.663251629121135 0 0 0
29472 2 20.264018992784187 6.299694380233179 4.663252230457088 0 0 0
11113 1 21.822789947807017 7.1996539119963385 3.1043472198867175 0 0 0
29471 2 23.381560683701327 6.299695317320025 4.663252859355327 0 0 0
11115 1 24.94033152521201 7.199653996276693 3.1043473812499074 0 0 0
29470 2 26.499102162942016 6.2996957911462 4.663253348525559 0 0 0
11150 1 28.057873075404117 7.199654030064625 3.1043476565688124 0 0 0
29469 2 29.616643622389333 6.2996965080786 4.663254118164415 0 0 0
11151 1 31.175414637149157 7.1996539875212235 3.1043478532758586 0 0 0
11152 1 1.5587698440229336 9.899524318250371 3.1043472883423715 0 0 0
11153 1 4.676311354744091 9.899524346074227 3.104347325286662 0 0 0
29468 2 3.1175406453336225 8.999567564849112 4.6632540119819765 0 0 0
11188 1 7.793852915588518 9.899524350532598 3.104347583503929 0 0 0
29467 2 6.235082066861531 8.999567461563217 4.663254130245689 0 0 0
29466 2 9.352623663738427 8.999567370423014 4.66325440026725 0 0 0
11191 1 10.911394483368676 9.899524355256561 3.1043478258881763 0 0 0
29465 2 12.470165297020104 8.999567190895162 4.663254495928668 0 0 0
11192 1 14.028936059881397 9.899524354068161 3.1043478798931026 0 0 0
29464 2 15.587706862842511 8.999567101087562 4.663254476918122 0 0 0
11194 1 17.146477645794263 9.89952434675434 3.1043478472034445 0 0 0
29463 2 18.705248384918338 8.999567165328202 4.663254471877821 0 0 0
11196 1 20.264019198365574 9.89952433093959 3.1043478418607457 0 0 0
11197 1 23.38156073827597 9.899524314859958 3.1043479473040274 0 0 0
29462 2 21.822789862527483 8.999567256356897 4.663254532195231 0 0 0
11199 1 26.499102327781035 9.899524375348712 3.1043476024794012 0 0 0
29461 2 24.940331591898808 8.999567431702195 4.663254515250878 0 0 0
11201 1 29.616643960944135 9.899524569592954 3.104346424442781 0 0 0
29460 2 28.057873545630166 8.999568034159058 4.663254079928841 0 0 0
29459 2 31.17541516541287 8.999568775332072 4.663253256022787 0 0 0
29458 2 1.558769973045106 11.699437868650401 4.663253788619463 0 0 0
11205 1 3.1175406271267256 12.599394508016339 3.1043469779160766 0 0 0
29457 2 4.676311377786642 11.69943794865921 4.663253757623317 0 0 0
11207 1 6.235082146033253 12.599394514441395 3.1043469955389638 0 0 0
29456 2 7.793852904306274 11.6994380488993 4.663253854238179 0 0 0
11208 1 9.352623705684168 12.59939452768175 3.104347031565348 0 0 0
11210 1 12.470165278226911 12.599394532309345 3.104347047615977 0 0 0
29455 2 10.911394485724658 11.699438167602318 4.663253962542502 0 0 0
11212 1 15.58770684608089 12.599394524557832 3.10434700017379 0 0 0
29454 2 14.028936081569066 11.699438191210257 4.663253979492415 0 0 0
11214 1 18.70524839590209 12.599394508585776 3.1043470908564377 0 0 0
29453 2 17.14647758867684 11.699438155685192 4.663253967890365 0 0 0
29452 2 20.264019006867258 11.699438030069423 4.663254161355631 0 0 0
11216 1 21.82278995206955 12.59939451184719 3.1043475477245357 0 0 0
29451 2 23.381560977364355 11.699438142576348 4.663254270885118 0 0 0
11183 1 24.940331596240082 12.599394610230362 3.1043469754760733 0 0 0
29480 2 26.4991035842975 11.69943887439368 4.6632530393405665 0 0 0
11154 1 28.057873400107432 12.599394983663258 3.1043443462828764 0 0 0
29482 2 29.61664532589442 11.699439813372948 4.663250793534911 0 0 0
11155 1 31.175415214379267 12.599395607218987 3.1043420557391106 0 0 0
11156 1 1.5587698922754738 15.299264716912823 3.104346964579108 0 0 0
11157 1 4.6763113828441245 15.299264698218177 3.104346968426477 0 0 0
29513 2 3.117540623907937 14.399307970724673 4.6632536151457 0 0 0
11159 1 7.79385293166547 15.299264697100146 3.104346964411144 0 0 0
29483 2 6.235082146989747 14.399307981338861 4.663253622533011 0 0 0
29512 2 9.352623709300492 14.399308006899659 4.663253620661471 0 0 0
11162 1 10.91139449922294 15.299264698549383 3.1043469553296106 0 0 0
29511 2 12.470165290687419 14.399308024124851 4.663253607923486 0 0 0
11163 1 14.028936060287103 15.299264694020216 3.10434691476505 0 0 0
29510 2 15.587706804337149 14.39930799134889 4.663253587720443 0 0 0
11165 1 17.146477602640296 15.299264674792362 3.1043469907009222 0 0 0
29509 2 18.705248175896244 14.399307874515996 4.663253854860318 0 0 0
11167 1 20.26401916997413 15.299264670826545 3.1043475526488984 0 0 0
11168 1 23.381560902304667 15.299264804152712 3.1043467639103763 0 0 0
29508 2 21.822790314112783 14.399308183001178 4.66325408589025 0 0 0
11170 1 26.499102901217956 15.299265199275782 3.1043431980477276 0 0 0
29507 2 24.940333333336884 14.399309076825535 4.663252341141648 0 0 0
11172 1 29.61664502259649 15.299266125210305 3.104341771501275 0 0 0
29506 2 28.057874787348347 14.399309470907696 4.663249312931128 0 0 0
29505 2 31.175415246118465 14.399308826042441 4.663248506036018 0 0 0
29504 2 1.5587698605981852 17.099178182055628 4.663253628119309 0 0 0
11177 1 3.117540607833265 17.999134918060943 3.1043469843252223 0 0 0
29503 2 4.676311368012522 17.09917816015582 4.6632536465126515 0 0 0
11179 1 6.235082151903329 17.99913490748606 3.1043470031602283 0 0 0
29502 2 7.793852933493475 17.099178157365913 4.663253648632988 0 0 0
11180 1 9.352623716762544 17.999134905645587 3.104347003123789 0 0 0
11181 1 12.470165277000111 17.999134901632136 3.104346980157709 0 0 0
29501 2 10.91139450506899 17.099178156888307 4.663253639867152 0 0 0
11283 1 15.58770681946003 17.999134884606995 3.104347018936885 0 0 0
29500 2 14.028936033617713 17.099178133972686 4.663253619386645 0 0 0
11546 1 18.705248385423538 17.999134857968926 3.104347519485072 0 0 0
29499 2 17.146477411860634 17.099178025635513 4.663253842411648 0 0 0
29498 2 20.264019520157042 17.099178329949392 4.663254111163272 0 0 0
11517 1 21.82279015101851 17.999134947131864 3.1043468027489642 0 0 0
29497 2 23.3815627757336 17.099179305102844 4.6632521809025285 0 0 0
11519 1 24.940332304495584 17.999135327384497 3.104342911727778 0 0 0
29496 2 26.49910363081949 17.099178957879023 4.663249077003148 0 0 0
11521 1 28.057874731229756 17.99913610479346 3.104343280781032 0 0 0
29495 2 29.616642811344217 17.09917703342621 4.663250954762061 0 0 0
11522 1 31.17541703075092 17.999137585606288 3.1043508931818753 0 0 0
11523 1 1.5587698256564193 20.69900515205265 3.1043469785927496 0 0 0
11524 1 4.6763113682574575 20.699005136955932 3.1043470020832507 0 0 0
29494 2 3.1175405831941116 19.799048392541405 4.663253647686456 0 0 0
11526 1 7.793852932472433 20.699005134120505 3.1043470016798187 0 0 0
29493 2 6.2350821492490365 19.799048390658296 4.6632536561222455 0 0 0
29492 2 9.35262371846232 19.799048390644803 4.663253652898312 0 0 0
11528 1 10.911394493267942 20.69900513141047 3.1043469888410966 0 0 0
29491 2 12.47016525952652 19.799048378179233 4.663253636580728 0 0 0
11530 1 14.028936033498862 20.699005120220956 3.1043470030373106 0 0 0
29490 2 15.58770666301046 19.79904827790207 4.663253787816945 0 0 0
11532 1 17.146477578887005 20.699005088326373 3.1043473642933175 0 0 0
29489 2 18.705248590338925 19.799048479675175 4.663254072078869 0 0 0
11534 1 20.264019305253957 20.699005089537014 3.1043469767011582 0 0 0
11535 1 23.381561497572072 20.699005345486707 3.10434322100992 0 0 0
29488 2 21.822791827840962 19.79904936160667 4.663252372089708 0 0 0
11537 1 26.499104191933 20.699005907537575 3.1043432800476958 0 0 0
29487 2 24.940332901150658 19.799049092432462 4.663249081081394 0 0 0
11539 1 29.616647137139257 20.69900698506873 3.1043548863511785 0 0 0
29486 2 28.0578704767353 19.799046849639815 4.663252670175359 0 0 0
29485 2 31.175410383734853 19.79904341268229 4.6632659050571466 0 0 0
29484 2 1.5587697975295873 22.498918623209583 4.663253647388362 0 0 0
11544 1 3.11754058325252 23.39887536663818 3.10434700190138 0 0 0
29450 2 4.6763113640445635 22.49891862078248 4.663253656280427 0 0 0
11545 1 6.235082147585512 23.398875363717814 3.1043470007567633 0 0 0
29449 2 7.793852931942143 22.498918619799788 4.663253654732214 0 0 0
11514 1 9.352623709501326 23.398875363008898 3.1043469944655477 0 0 0
11483 1 12.47016524984188 23.39887535911712 3.1043469858230868 0 0 0
29448 2 10.911394485963267 22.498918617707893 4.663253640299225 0 0 0
11485 1 15.587706773846149 23.398875338473612 3.1043472280170867 0 0 0
29447 2 14.028935913072143 22.498918548492693 4.663253721826436 0 0 0
11487 1 18.705248424419338 23.39887528772018 3.104347259978549 0 0 0
29413 2 17.146477584251965 22.498918573966836 4.6632540332467665 0 0 0
29412 2 20.264020623799325 22.4989192070054 4.6632529216284215 0 0 0
11490 1 21.822790544698204 23.398875325024257 3.1043443478411827 0 0 0
29411 2 23.38156291227286 22.498919285107267 4.6632493324684745 0 0 0
11492 1 24.94033336602279 23.398875586336697 3.1043417831268116 0 0 0
29410 2 26.499100824748588 22.49891821381545 4.663250957009759 0 0 0
11493 1 28.05787662575301 23.398876026591104 3.104350893075787 0 0 0
29409 2 29.61663745477992 22.498917356079325 4.663265906455704 0 0 0
11494 1 31.175420525526427 23.398877077344103 3.1043730886215366 0 0 0
11495 1 1.5587697979863657 26.098745594321155 3.104347003069256 0 0 0
11496 1 4.676311363584288 26.098745592681052 3.1043470014421795 0 0 0
29408 2 3.1175405792404804 25.19878885098511 4.66325365585127 0 0 0
11498 1 7.793852928243264 26.09874559444963 3.1043470000782336 0 0 0
29407 2 6.235082147132463 25.19878884999595 4.663253654807062 0 0 0
29406 2 9.352623710681748 25.1987888503496 4.663253647298924 0 0 0
11501 1 10.911394474435594 26.098745597543566 3.1043469828531913 0 0 0
29405 2 12.470165200587129 25.198788832359405 4.6632536528705515 0 0 0
11503 1 14.02893598803452 26.0987455956479 3.1043470674332574 0 0 0
29404 2 15.587706610188341 25.19878877405354 4.663253934805285 0 0 0
11505 1 17.146477545311566 26.09874555478409 3.104347421708487 0 0 0
29403 2 18.705249011751405 25.19878895417949 4.66325372175289 0 0 0
11507 1 20.26401943295798 26.098745460981736 3.1043462051469337 0 0 0
11508 1 23.38156200628016 26.098745448477903 3.104342068763744 0 0 0
29402 2 21.822792367136483 25.198789074327347 4.663250726669492 0 0 0
11510 1 26.49910552507658 26.098745369021625 3.104344242513174 0 0 0
29401 2 24.940332598611143 25.19878886453502 4.663248520545763 0 0 0
11511 1 29.6166505713785 26.09874497342945 3.104359397658985 0 0 0
29414 2 28.05787006453281 25.198789361272908 4.663257098660447 0 0 0
29400 2 31.175409175730575 25.198791374519402 4.663280808008188 0 0 0
29398 2 1.558769795061158 27.898659077753397 4.663253651890036 0 0 0
11548 1 3.117540583630882 28.79861580045079 3.1043469910794186 0 0 0
29397 2 4.676311365300151 27.898659077289203 4.663253653705549 0 0 0
11583 1 6.235082151319599 28.798615811090798 3.1043469965285766 0 0 0
29396 2 7.7938529318830545 27.898659078398076 4.663253655315077 0 0 0
11584 1 9.352623705741031 28.798615823441022 3.1043469957097867 0 0 0
11586 1 12.470165222381878 28.798615837674074 3.1043469799690815 0 0 0
29395 2 10.911394476156394 27.898659080088887 4.663253640517632 0 0 0
11588 1 15.587706696213143 28.798615844667395 3.10434717951036 0 0 0
29394 2 14.028935874342567 27.89865907256343 4.663253722009037 0 0 0
11590 1 18.705248271474932 28.79861578271759 3.104347447648922 0 0 0
29393 2 17.14647738024434 27.89865905467811 4.663254075955378 0 0 0
29392 2 20.264020322030724 27.898658893768555 4.6632529796569715 0 0 0
11592 1 21.82279023389641 28.798615663254772 3.104345013181562 0 0 0
29391 2 23.38156305860357 27.89865875495761 4.663249078168451 0 0 0
11594 1 24.94033283437166 28.798615464155063 3.1043412144102493 0 0 0
29390 2 26.499101220043382 27.8986593494694 4.663249869654348 0 0 0
11596 1 28.057875854461713 28.798614772667875 3.104347128535 0 0 0
29389 2 29.61663825970333 27.898661005601532 4.663263329188771 0 0 0
11597 1 31.17541865036694 28.798613550044738 3.1043642606344184 0 0 0
11598 1 1.5587698170673976 31.498485952301266 3.1043469763423475 0 0 0
11599 1 4.676311385589389 31.498485992959807 3.104346979345041 0 0 0
29388 2 3.117540597617887 30.59852926487195 4.663253633567663 0 0 0
11601 1 7.793852943170113 31.49848603206557 3.104346983640627 0 0 0
29387 2 6.2350821627944155 30.59852928842181 4.663253639294837 0 0 0
29386 2 9.352623717898554 30.598529306310734 4.663253645699517 0 0 0
11604 1 10.911394484440361 31.498486058237248 3.104346985581209 0 0 0
29399 2 12.470165239071394 30.598529319365948 4.663253633363856 0 0 0
11606 1 14.028935972317015 31.498486089081148 3.104346976680208 0 0 0
29415 2 15.587706554419851 30.598529355283056 4.66325380076639 0 0 0
11608 1 17.146477406940505 31.498486117290742 3.1043473065572718 0 0 0
29416 2 18.70524816421916 30.598529261350947 4.663254161099473 0 0 0
11610 1 20.264018973755235 31.498486080634844 3.1043474567885028 0 0 0
11581 1 23.38156093774467 31.498485949794826 3.104344281753768 0 0 0
29417 2 21.82279137242876 30.598528777409747 4.663252366229423 0 0 0
11580 1 26.499103371875673 31.498485472807086 3.1043412784843154 0 0 0
29446 2 24.940333267752756 30.598528552918715 4.663248365810637 0 0 0
11578 1 29.61664619414955 31.498484235497394 3.1043471293976346 0 0 0
29445 2 28.057871352499582 30.59853034635933 4.663250808122252 0 0 0
29444 2 31.17541021390212 30.59853325993621 4.663263322794395 0 0 0
29443 2 1.558769909984209 33.29839925777475 4.663253802326739 0 0 0
11553 1 3.1175406437685815 34.19835613641886 3.104347180044736 0 0 0
29442 2 4.676311471799519 33.2983993751609 4.663253721874143 0 0 0
11555 1 6.2350821917051995 34.19835621313006 3.1043470674272315 0 0 0
29441 2 7.793852993239433 33.29839947693149 4.663253654799134 0 0 0
11556 1 9.352623738234945 34.198356257998384 3.104346987413631 0 0 0
11558 1 12.470165266851076 34.19835629370354 3.104346971107667 0 0 0
29440 2 10.911394510201772 33.29839953141865 4.663253636177498 0 0 0
11560 1 15.587706742441034 34.198356339931685 3.1043469802157886 0 0 0
29439 2 14.028936006681139 33.298399566762335 4.663253627926514 0 0 0
11561 1 18.705248175603625 34.198356402334575 3.1043474163491647 0 0 0
29438 2 17.14647728750058 33.298399652290534 4.6632538785826885 0 0 0
29437 2 20.26401902465309 33.298399573046105 4.663254224229952 0 0 0
11564 1 21.822789765342048 34.19835642507224 3.1043474250432315 0 0 0
29436 2 23.381562136287446 33.29839876605504 4.6632521218641365 0 0 0
11566 1 24.94033174200576 34.19835621237593 3.104344281795646 0 0 0
29435 2 26.49910386404583 33.2983984567205 4.663248367287592 0 0 0
11568 1 28.057874086098856 34.19835537593486 3.1043412152281586 0 0 0
29434 2 29.616643127498506 33.29840039602738 4.6632498676757725 0 0 0
11569 1 31.17541648291933 34.19835365522983 3.104344230902334 0 0 0
11570 1 1.5587699120745804 36.89822640239543 3.1043474487352847 0 0 0
11571 1 4.676311449177911 36.898226454069444 3.1043474223531797 0 0 0
29433 2 3.117540735051355 35.99826955935717 4.663254075641823 0 0 0
11573 1 7.793852998374042 36.89822645850623 3.104347228296094 0 0 0
29432 2 6.235082340354231 35.99826959773617 4.663253934831401 0 0 0
29431 2 9.352623860813639 35.99826967200443 4.663253721760001 0 0 0
11576 1 10.911394531965707 36.898226494421195 3.104347003723885 0 0 0
29430 2 12.470165310154233 35.998269758310975 4.6632536284108825 0 0 0