LAMMPS data file via write_data, version 21 Nov 2023, timestep = 1762, units = metal

46461 atoms
3 atom types

0 1558.7659414588131 xlo xhi
0 86.3955785972837 ylo yhi
0 50 zlo zhi
0 0 0 xy xz yz

Masses

1 95.94
2 32.065
3 32.065

Atoms # atomic

46461 3 1.5587891015665842 0.8999826476742857 1.5455903414179792 0 0 0
33904 3 4.676270444874077 0.8999847138380489 1.5454894032013262 0 0 0
33905 3 7.79376555021569 0.8999383026273159 1.5456191956943581 0 0 0
33906 3 10.911300520395509 0.899930146117408 1.5455539669583882 0 0 0
33907 3 14.028868575242274 0.8999582078237865 1.5455027116443905 0 0 0
33908 3 17.146439326057067 0.899963569353836 1.5455119040012157 0 0 0
33909 3 20.263939864885035 0.8999574551678764 1.5453787636638587 0 0 0
33911 3 23.38144244843422 0.8999650304508071 1.545488777514839 0 0 0
33918 3 26.499007324870274 0.8999690233198893 1.5454608389079287 0 0 0
33912 3 29.616544634217398 0.8999656406163089 1.545457469762335 0 0 0
28418 2 24.940248724599968 41.397882461855545 4.663278839907479 0 0 0
33913 3 3.1175261467309126 3.599808083715692 1.5455019191189805 0 0 0
33914 3 6.2349943130706045 3.5997843976132287 1.545631340625282 0 0 0
33915 3 9.352540616606738 3.5998119155927677 1.545549392627019 0 0 0
33916 3 12.47008050869942 3.599815496425993 1.5455113873918185 0 0 0
33917 3 15.587636901774944 3.5998138935727897 1.5454895893849807 0 0 0
33903 3 18.70518911924446 3.5997842678630594 1.54550387286106 0 0 0
33902 3 21.822701349026538 3.5997902844397918 1.5454960533409101 0 0 0
33901 3 24.94024967437824 3.5998273899831554 1.5454724881800246 0 0 0
33900 3 28.057800528040243 3.599858948712475 1.545494416509109 0 0 0
33899 3 31.175292621669943 3.5998582390653575 1.5454970275684488 0 0 0
33898 3 1.5587678934533271 6.299663096303731 1.5456308662051614 0 0 0
33897 3 4.676268013997186 6.299636575046538 1.54562029590939 0 0 0
33896 3 7.7937983307890075 6.299693568627267 1.5455887561196002 0 0 0
33895 3 10.91129638374612 6.299698782817725 1.5455469212445934 0 0 0
33894 3 14.028857631147307 6.299676199217888 1.5454951310305187 0 0 0
33893 3 17.14641453557584 6.299669895342565 1.5454820496764419 0 0 0
33892 3 20.263955462476225 6.299682521819186 1.5454819408935285 0 0 0
33891 3 23.381488825893385 6.2996840425101945 1.545482532032628 0 0 0
33890 3 26.49904136986987 6.299703264231975 1.5455092552827305 0 0 0
33889 3 29.616544464056478 6.299692606083558 1.545389875632311 0 0 0
33888 3 3.1175241019102935 8.999545045401197 1.5456310104232203 0 0 0
33887 3 6.235038194962631 8.999546208665226 1.5456228703247785 0 0 0
33910 3 9.352549889315464 8.999529409954235 1.5454427890037294 0 0 0
33920 3 12.470060474040764 8.999540239555234 1.5455262674727182 0 0 0
33945 3 15.587634999970701 8.999537633967806 1.5454845380957964 0 0 0
33921 3 18.70519041983474 8.99954444081082 1.545486272774369 0 0 0
33939 3 21.822743935277924 8.999574307135536 1.5455163214543521 0 0 0
33940 3 24.940231216126598 8.999578198303627 1.5455244014128364 0 0 0
33941 3 28.057782552586087 8.999525477916153 1.5455296708331927 0 0 0
33942 3 31.175291994106725 8.999519357219368 1.545523948365009 0 0 0
33943 3 1.558792804352193 11.699342785422274 1.545598184897751 0 0 0
33944 3 4.676286680786222 11.699369171418313 1.545451426588504 0 0 0
33946 3 7.793780034641204 11.69934566461156 1.5455928457116124 0 0 0
33953 3 10.911310876874326 11.699360608467103 1.5455394365542086 0 0 0
33947 3 14.028868608017971 11.699396854064855 1.5454915337539081 0 0 0
33948 3 17.146424580104124 11.699403271179833 1.5454861396258217 0 0 0
33949 3 20.263990200152627 11.699410898537137 1.5455189542781325 0 0 0
33950 3 23.381490047805567 11.699409534870089 1.5454130390197909 0 0 0
33951 3 26.498990735926544 11.699417183073642 1.545546918097854 0 0 0
33952 3 29.616531239041457 11.699412568336683 1.5455244672102675 0 0 0
28417 2 28.057780807444068 41.397884378731064 4.663275056602622 0 0 0
33938 3 3.1175432316456946 14.399198416225786 1.5455616054640873 0 0 0
33937 3 6.235040546471048 14.399196882215056 1.5455611749333014 0 0 0
33936 3 9.352563143814912 14.399242367169823 1.5455241685424583 0 0 0
33935 3 12.470104260637324 14.399250774229422 1.5455031374954733 0 0 0
33934 3 15.58765155260572 14.399267496172625 1.5454921923597726 0 0 0
33933 3 18.70519326947563 14.399269490446205 1.545497386949418 0 0 0
33932 3 21.822735429226995 14.399239696533208 1.5455367349599414 0 0 0
33931 3 24.940246823461425 14.399239288014366 1.5455559529540452 0 0 0
33930 3 28.057799126593746 14.399295428152602 1.5455643359993407 0 0 0
33929 3 31.175288253708054 14.39930759819772 1.5455646250514334 0 0 0
33928 3 1.5587756826132002 17.099097049169398 1.5455208856518943 0 0 0
33927 3 4.676313143745212 17.099115682816795 1.545552669797253 0 0 0
33926 3 7.793789514800862 17.099120238530585 1.545547883351964 0 0 0
33925 3 10.91134174925638 17.09911877778326 1.5455134058756421 0 0 0
33924 3 14.02889289423248 17.09913570947791 1.54550732273614 0 0 0
33923 3 17.146430306061248 17.09914778551588 1.545511193719558 0 0 0
33922 3 20.26395527255423 17.099138763054174 1.5455232388050193 0 0 0
33886 3 23.381485710014733 17.09913188922903 1.5455387072841205 0 0 0
33885 3 26.49904300151735 17.0991229219112 1.545569274910757 0 0 0
33884 3 29.616551738267276 17.099127613897537 1.545458931827042 0 0 0
33875 3 3.1175617607847284 19.79897031831853 1.545539337977082 0 0 0
33847 3 6.235056536504084 19.798963683011543 1.545422225144729 0 0 0
33846 3 9.352553215256966 19.798978351753473 1.5455391978763258 0 0 0
33845 3 12.470125209572558 19.798989319954785 1.5455192483207294 0 0 0
33844 3 15.58769228714866 19.799024232735366 1.5455559588587675 0 0 0
33843 3 18.705193371779963 19.799058556964724 1.5455917150631262 0 0 0
33842 3 21.822678882977762 19.79902303530477 1.5455731028822859 0 0 0
33841 3 24.94023580040567 19.798985627593527 1.5455468644687844 0 0 0
33840 3 28.057795235176616 19.798943220858064 1.5455725557095834 0 0 0
33839 3 31.175330048338683 19.79893641077642 1.5456037571535615 0 0 0
33838 3 1.558751312370642 22.498834191947942 1.5455079232218727 0 0 0
33837 3 4.676302744126209 22.49879558060975 1.5455324852410417 0 0 0
33836 3 7.793815777227208 22.49879947010827 1.5455335250944895 0 0 0
33835 3 10.91137271493515 22.498836722838817 1.545516561927811 0 0 0
33834 3 14.02894386368584 22.498852601307515 1.5455582334346583 0 0 0
33848 3 17.146453950770805 22.498853701300742 1.5454692093202682 0 0 0
33833 3 20.263939075827267 22.498863396673165 1.5454877056605012 0 0 0
33831 3 23.38142958539224 22.498859074829987 1.5455757753373425 0 0 0
33830 3 26.498994277188128 22.498828125927464 1.545540897338772 0 0 0
33829 3 29.616537475812947 22.4988116340453 1.5455350014710638 0 0 0
33828 3 3.1175168416314345 25.19868400779605 1.545500023533522 0 0 0
33827 3 6.235060342595885 25.19868672207108 1.545501397608431 0 0 0
33826 3 9.352601126788585 25.19869463545189 1.5455092457668853 0 0 0
33825 3 12.470139742725042 25.19869793038393 1.545523059593803 0 0 0
33824 3 15.587684240413871 25.19866967544248 1.5455667422483161 0 0 0
33823 3 18.705223479031062 25.1986613254067 1.545605684508017 0 0 0
33822 3 21.822697740780765 25.198672680915497 1.5454674678793918 0 0 0
33821 3 24.940188015046285 25.198700251978636 1.54555988724172 0 0 0
33820 3 28.057753136142136 25.19868220551563 1.545516573649 0 0 0
33819 3 31.17530392487804 25.198667500366955 1.5455018872563462 0 0 0
33818 3 1.55875369212664 27.898555634609153 1.5454979473486508 0 0 0
33832 3 4.676289068512807 27.898563491666955 1.5454946588537832 0 0 0
33849 3 7.793838629274886 27.898561351846727 1.5455035781400122 0 0 0
33850 3 10.911390353281707 27.89858204826887 1.5455387491905475 0 0 0
33851 3 14.028885536936944 27.89857455444034 1.5455562942498722 0 0 0
33869 3 17.146429295537306 27.898552058129685 1.5455520875617192 0 0 0
33870 3 20.263953350364876 27.898509076174225 1.5455803842693472 0 0 0
33871 3 23.381439585721843 27.898517151553985 1.5455659264965438 0 0 0
33872 3 26.4989874534792 27.898548465545872 1.5455092335672405 0 0 0
33873 3 29.61653100743565 27.89854484527174 1.5454856187899417 0 0 0
34430 3 4.061823697865348e-05 3.5998181030935834 1.545589708944583 1 0 0
33874 3 3.1175033974073902 30.59844186617062 1.545515128621049 0 0 0
33876 3 6.235065179327749 30.59842195796861 1.5454955170535674 0 0 0
33883 3 9.352635460490252 30.598421493043723 1.545528379030846 0 0 0
33877 3 12.470137204100256 30.598412494388853 1.5454232562850685 0 0 0
33878 3 15.587636558335472 30.598418015803173 1.5455630426818048 0 0 0
33879 3 18.70520080191756 30.598426533620767 1.5455724056389826 0 0 0
33880 3 21.82267531952726 30.598426224989726 1.545565587410991 0 0 0
33881 3 24.940213677270087 30.598408187624138 1.545515915609086 0 0 0
33882 3 28.057761736816783 30.598418200115336 1.545485578717561 0 0 0
33868 3 31.17530129485052 30.598418082383674 1.545466188973227 0 0 0
33867 3 1.5587563995453635 33.29827341038039 1.5453897922283455 0 0 0
33866 3 4.676255788631426 33.29828168193784 1.5455060053279346 0 0 0
33865 3 7.793822488044991 33.29827314591244 1.545484051116219 0 0 0
33864 3 10.911381417886798 33.29823696327551 1.5455198977384852 0 0 0
33863 3 14.028898558032626 33.2982387230386 1.5455383288686948 0 0 0
33862 3 17.14645849555999 33.29827065625383 1.5455534986246393 0 0 0
33861 3 20.26394344751657 33.29826808847258 1.5454352043970447 0 0 0
33860 3 23.38142911325087 33.29827963229036 1.5455402474631499 0 0 0
33859 3 26.498988680563716 33.29828087594846 1.5454937350317162 0 0 0
33858 3 29.616538735915977 33.29829330873197 1.5454742310232408 0 0 0
33857 3 3.1175096469312895 35.99810482028227 1.5454939495713802 0 0 0
33856 3 6.235054318601955 35.998136153736155 1.5454662262869334 0 0 0
33855 3 9.352599304218252 35.99812817427117 1.5454703188873693 0 0 0
33854 3 12.470136640118213 35.99812594863999 1.5454871241233505 0 0 0
33853 3 15.58767017813346 35.998127250902144 1.5455051705442073 0 0 0
33852 3 18.70520053138254 35.9981013155683 1.545540965603668 0 0 0
33919 3 21.822689171580027 35.99811050177176 1.5455385956647085 0 0 0
33954 3 24.940232203838583 35.998140713655296 1.5454973342820857 0 0 0
33955 3 28.05777749845914 35.9981501021885 1.545484197610941 0 0 0
33956 3 31.175329274186595 35.9981785021961 1.545493116440833 0 0 0
34044 3 1.5587582795458912 38.698002546147 1.5454616871345999 0 0 0
34045 3 4.6762834591504765 38.6980011817206 1.5454575649745297 0 0 0
34046 3 7.793825667035094 38.6980076643144 1.5454558775885272 0 0 0
34047 3 10.911365196780963 38.69800488463195 1.5454645750315843 0 0 0
34048 3 14.028906973348256 38.69800227577025 1.5454833856926495 0 0 0
34049 3 17.14645201117626 38.698013797142686 1.5455228282671019 0 0 0
34051 3 20.263924736516312 38.69801548453735 1.5455309493180243 0 0 0
34058 3 23.381461238575252 38.69799408173725 1.5454951671627137 0 0 0
34052 3 26.499016004360442 38.69800302779572 1.545479121647334 0 0 0
34053 3 29.616579587207394 38.698013622294944 1.545496105206966 0 0 0
34054 3 3.1175221594763136 41.39788650139074 1.5454600599685768 0 0 0
34055 3 6.235047785129179 41.397889756050766 1.5454576527898631 0 0 0
34056 3 9.352590392141744 41.397879681002884 1.545458845284603 0 0 0
34057 3 12.470136494372754 41.397873515158366 1.545467672137934 0 0 0
34043 3 15.587696685403603 41.397869534471546 1.5455045106622982 0 0 0
34042 3 18.705185117769073 41.397858225203414 1.5453944789832974 0 0 0
34041 3 21.822672221201735 41.397863960323 1.5455066242716777 0 0 0
34040 3 24.94023148382957 41.39786176075454 1.5454657275960746 0 0 0
34039 3 28.0577819171781 41.39786178670284 1.545458219096287 0 0 0
34038 3 31.175328415963328 41.397835431159734 1.5454823375746278 0 0 0
28621 2 1.558763318370366 0.8999595188189531 4.663378390300127 0 0 0
11129 1 3.1175772979200405 1.7999479253256703 3.104502451459031 0 0 0
11131 1 6.234960814181314 1.7998515127693726 3.104536275744804 0 0 0
28620 2 7.79382102333272 0.8999586441523789 4.663394196121059 0 0 0
11132 1 9.352561093883194 1.799916498005164 3.1044711409677883 0 0 0
11134 1 12.47010175083005 1.7999022422765516 3.104420693521587 0 0 0
28619 2 10.911358349613758 0.8999576765666443 4.6633481531177114 0 0 0
11136 1 15.587651700063626 1.7999121507303713 3.1044025968379376 0 0 0
28618 2 14.028886068437133 0.8999631471473748 4.663318823979748 0 0 0
11137 1 18.705261373578686 1.7998623994773548 3.104424228218576 0 0 0
28617 2 17.146416636892695 0.8999636184305766 4.663307552409477 0 0 0
11140 1 21.822630394501683 1.7998635019923526 3.1044114908607447 0 0 0
28616 2 23.381481481076754 0.8999594431811311 4.663284432553221 0 0 0
11142 1 24.940235819966937 1.7999150339810073 3.1043743956813996 0 0 0
28615 2 26.499013230336516 0.8999589786162028 4.663273381290193 0 0 0
11144 1 28.05778295507022 1.7999217124481541 3.1043701601891067 0 0 0
28614 2 29.616543568066394 0.8999548996282358 4.66327396211556 0 0 0
11145 1 31.175304741820785 1.7999207709840472 3.1043715842143693 0 0 0
11146 1 1.5588321499265272 4.499721528091551 3.104527818487957 0 0 0
28416 2 31.175310716700363 41.39788095185978 4.66327780236325 0 0 0
11147 1 4.676200674488671 4.499716764185099 3.1045444329423 0 0 0
11149 1 7.793800990135139 4.499769304576487 3.104479569810034 0 0 0
28613 2 6.235067148964027 3.5998160651612516 4.663401960873256 0 0 0
28612 2 9.3525864972562 3.5998253491313896 4.663371086498225 0 0 0
11118 1 10.911325748009931 4.499774210257604 3.1044353370060658 0 0 0
28611 2 12.470113310088976 3.5998165047961734 4.663323677642076 0 0 0
11102 1 14.02887090391098 4.499766273187951 3.104404505024636 0 0 0
28610 2 15.587648510636482 3.5998193414973856 4.663306848059814 0 0 0
11090 1 17.146414202084603 4.499758694365972 3.104391922383204 0 0 0
28459 2 18.70517995279993 3.599816796854422 4.663299276604519 0 0 0
11092 1 20.263948525768374 4.499773743883493 3.104394517539253 0 0 0
11093 1 23.38147868903404 4.4997638827703605 3.104383407392711 0 0 0
28635 2 21.82271968673898 3.5998130275144473 4.663291961971703 0 0 0
11095 1 26.49900936339302 4.499777099914447 3.1043928152848617 0 0 0
28458 2 24.940242694154993 3.5998118211089416 4.663292321475833 0 0 0
11097 1 29.616545126176067 4.49987190829264 3.1044181265007764 0 0 0
28399 2 28.05778180659282 3.599812471198094 4.663289423554531 0 0 0
28308 2 31.175304139280037 3.5998101953666746 4.663292469600798 0 0 0
28307 2 1.558741557113958 6.299668868019887 4.663405543063133 0 0 0
11103 1 3.11753151112041 7.199630553601332 3.1045221598851964 0 0 0
28306 2 4.676291646456586 6.29966590716308 4.663424886951331 0 0 0
11104 1 6.235031252839517 7.1996207375394725 3.1045040006765645 0 0 0
28305 2 7.7938263921850846 6.299673013778565 4.663384932147052 0 0 0
11105 1 9.352567855573609 7.199718329445859 3.104482088251985 0 0 0
11106 1 12.47010555020589 7.199627496621247 3.1044226934578196 0 0 0
28304 2 10.911350682715849 6.299674971270288 4.663342144381265 0 0 0
11108 1 15.587644061025483 7.199625674878355 3.1043922484453845 0 0 0
28303 2 14.028887944055784 6.2996743054696065 4.663312005876269 0 0 0
11110 1 18.705182919431515 7.199630287722341 3.1043899074773624 0 0 0
28302 2 17.146416223643726 6.299672839253203 4.66329564094069 0 0 0
28301 2 20.26395345071158 6.2996823969196045 4.663298521354223 0 0 0
11113 1 21.82272567307555 7.1996391093981265 3.1043933007838698 0 0 0
28300 2 23.381483286644773 6.29966994139656 4.6632980100400845 0 0 0
11115 1 24.9402476630173 7.199644219364417 3.1044000944173424 0 0 0
28299 2 26.49900671168904 6.299682475802944 4.663303947417946 0 0 0
11150 1 28.057858008487933 7.19958952933308 3.104433645897668 0 0 0
11151 1 31.17523081495935 7.19958776953756 3.1044322547957766 0 0 0
11152 1 1.558678938231041 9.899429021720977 3.104522126399416 0 0 0
11153 1 4.676285562868151 9.89958909506772 3.1045192300977056 0 0 0
28298 2 3.1175324748456816 8.999550039992409 4.663406749639586 0 0 0
11188 1 7.79389215533632 9.899427158015033 3.1045103806633723 0 0 0
28297 2 6.235042794414323 8.999538988675457 4.663394699974046 0 0 0
11191 1 10.911257846747905 9.899439150311792 3.104458607762239 0 0 0
28296 2 12.470121064115126 8.999542055043468 4.663322055461508 0 0 0
11192 1 14.028866876723612 9.89949033591372 3.104399334340142 0 0 0
28295 2 15.587645408292843 8.999535848477315 4.663297884937021 0 0 0
11194 1 17.146412393589575 9.89949059791561 3.104390771366292 0 0 0
28294 2 18.705173932484563 8.999533790391508 4.663303619254263 0 0 0
11196 1 20.263949028765676 9.89949266315454 3.104409377174339 0 0 0
11197 1 23.381482877925617 9.899590787902724 3.104444027290521 0 0 0
28293 2 21.822717247727965 8.99953089772709 4.663311690487986 0 0 0
11199 1 26.499016133969896 9.899488278492589 3.1044313726088295 0 0 0
28292 2 24.94023861657348 8.999530035786881 4.663322218069887 0 0 0
11201 1 29.616541192405418 9.899497997513315 3.1044289440278208 0 0 0
28291 2 28.05777719495262 8.999526818935198 4.663328456356554 0 0 0
28290 2 31.175316411544856 8.9995319081381 4.6633194050316 0 0 0
28289 2 1.5587607173843299 11.699403065653245 4.663372046015439 0 0 0
11205 1 3.1176098382572888 12.599278010674448 3.1044900009228327 0 0 0
11207 1 6.23496682540274 12.59927669318039 3.104489711159705 0 0 0
28288 2 7.793815731455084 11.6993975023982 4.663366014271194 0 0 0
11208 1 9.352565027360003 12.599346289007979 3.104448096715076 0 0 0
11210 1 12.470105889704701 12.599337270661028 3.104410687872104 0 0 0
28287 2 10.911355425727447 11.699392878887078 4.663334226281452 0 0 0
11212 1 15.587649008733544 12.599351230926493 3.1043941827600317 0 0 0
28286 2 14.028888014157063 11.699395147896084 4.663308284954103 0 0 0
11214 1 18.705193144158017 12.599357151793301 3.104399995231469 0 0 0
28285 2 17.14641816935542 11.699397954106825 4.663299514443265 0 0 0
28284 2 20.263943577024488 11.699402216530387 4.663314405891035 0 0 0
11216 1 21.82279750666306 12.599308799687478 3.1044463454127524 0 0 0
11183 1 24.940167433259287 12.59930619273012 3.104463908722883 0 0 0
28309 2 26.499012356692113 11.69939755458184 4.663341376532997 0 0 0
11154 1 28.05777430310628 12.599365587180182 3.104443207140271 0 0 0
28311 2 29.616540391030696 11.699398093214928 4.663343857364487 0 0 0
11155 1 31.1752970347565 12.599365231229223 3.104435339963388 0 0 0
11156 1 1.5587654707803784 15.299187707643975 3.1044354992971592 0 0 0
11157 1 4.676296570284046 15.299199879499655 3.1044542505495594 0 0 0
28340 2 3.117520670229145 14.399244921681172 4.6633549863628 0 0 0
11159 1 7.793805182495394 15.299194505224756 3.104440897441169 0 0 0
28312 2 6.235059149962652 14.399239483617103 4.663358115734018 0 0 0
28339 2 9.352587627919632 14.39925939590758 4.663343432514733 0 0 0
11162 1 10.911343903074377 15.299204891321947 3.1044187269726264 0 0 0
28338 2 12.470121174976821 14.399251097578935 4.663315910312872 0 0 0
11163 1 14.028881910540882 15.299212396773319 3.1044048101185275 0 0 0
28337 2 15.587652089086895 14.399255916462803 4.6633054753889285 0 0 0
11165 1 17.14642025644372 15.299219837162221 3.10440387740378 0 0 0
28336 2 18.705178544168202 14.39925636872958 4.663314112022016 0 0 0
11167 1 20.26395202765794 15.299211088154658 3.1044186781994147 0 0 0
11168 1 23.38148114475948 15.299218474746668 3.1044454126150276 0 0 0
28335 2 21.8227015162739 14.39925399063568 4.6633320065408785 0 0 0
11170 1 26.499007669317923 15.299204324868892 3.104462034562064 0 0 0
28334 2 24.940238920678976 14.399248492014628 4.663354525892805 0 0 0
11172 1 29.616542006276035 15.299310696468924 3.1044894838579555 0 0 0
28333 2 28.057779663508214 14.399253274697413 4.663362765401349 0 0 0
28332 2 31.175307597119303 14.399252667897121 4.663359108126277 0 0 0
28331 2 1.5587510597065872 17.09910683852546 4.663336975495056 0 0 0
11360 1 29.616551054578462 42.29781841313153 3.104361725220329 0 0 0
11177 1 3.1175265579896294 17.99905941011045 3.104440821771233 0 0 0
28330 2 4.676294003722099 17.099109716514967 4.663351015133467 0 0 0
11179 1 6.235053793856299 17.999152903829465 3.1044663990971073 0 0 0
28329 2 7.793816709800127 17.099103922099182 4.663342474408138 0 0 0
11180 1 9.352582111437002 17.99906270887518 3.1044348592144826 0 0 0
11181 1 12.470117944979716 17.99907235481614 3.1044181117163174 0 0 0
28328 2 10.91135904779807 17.0991102010225 4.663330238355793 0 0 0
11283 1 15.587662644398455 17.999084258556955 3.1044248881841234 0 0 0
28327 2 14.028888753859968 17.099114535033156 4.663320574921058 0 0 0
11546 1 18.705188182223814 17.999093931167984 3.104435657108309 0 0 0
28326 2 17.146421007155713 17.09911460928632 4.663327579290634 0 0 0
28325 2 20.26394189951683 17.099112013349664 4.6633387028211235 0 0 0
11517 1 21.82270837714104 17.999085114609986 3.104445747604321 0 0 0
28324 2 23.381474776757482 17.099123253477465 4.663354449740925 0 0 0
11519 1 24.940252317151764 17.999078412847954 3.1044539543972505 0 0 0
28323 2 26.499004944827934 17.09911962087085 4.663364397168071 0 0 0
11521 1 28.05785640640213 17.999022398991627 3.104491458182066 0 0 0
11522 1 31.175219873241105 17.999020286767134 3.1045199124192693 0 0 0
11523 1 1.558768132362584 20.698929365087064 3.1044194704957446 0 0 0
28419 2 21.82272277474591 41.397888023246736 4.6633021686104 0 0 0
11524 1 4.676373133158028 20.698877089343107 3.104456593891972 0 0 0
28322 2 3.1175216743035343 19.79898019035392 4.663334693776596 0 0 0
11526 1 7.793740057925162 20.698880209776394 3.1044572150063607 0 0 0
28321 2 9.352587172017422 19.79897924203243 4.663334456731669 0 0 0
11528 1 10.911345354465405 20.698931945831607 3.1044259623798642 0 0 0
28320 2 12.470109776866698 19.798973660525665 4.66333600012257 0 0 0
11530 1 14.028887947965078 20.698934031168136 3.1044456420266937 0 0 0
28319 2 15.58764916615083 19.798968015938247 4.663352491940552 0 0 0
11532 1 17.146421366315103 20.699036239904288 3.104498339436513 0 0 0
28318 2 18.70518162908243 19.798965369169256 4.663364709951128 0 0 0
11534 1 20.263951256705404 20.69904230634085 3.104512305586791 0 0 0
11535 1 23.38147096079709 20.698939723154243 3.1044645858690068 0 0 0
28317 2 21.822712012122103 19.79897095827862 4.663370858054275 0 0 0
11537 1 26.499012159885247 20.698921181300886 3.1044545584787087 0 0 0
28316 2 24.940243423024775 19.798982192020294 4.6633657910471635 0 0 0
11539 1 29.61655324244586 20.698929225779704 3.1044695842866616 0 0 0
28315 2 28.05777307089617 19.798977268554527 4.663367168515997 0 0 0
28314 2 31.175319657237132 19.798990083631683 4.663377537828605 0 0 0
28313 2 1.5587558925480123 22.49883532239658 4.663327008380465 0 0 0
11544 1 3.1175242750381447 23.39877692732495 3.1044150238903896 0 0 0
28283 2 4.676285297137978 22.498836100294202 4.6633279814020625 0 0 0
11545 1 6.235057693591226 23.39878858285906 3.1044247483838125 0 0 0
28282 2 7.793830284919447 22.498837894729174 4.663328922355084 0 0 0
11514 1 9.352593759030077 23.398780841014112 3.104418821227963 0 0 0
11483 1 12.47013794435594 23.398793395849655 3.104434336340044 0 0 0
28281 2 10.911358333570968 22.49883836020616 4.663332402826343 0 0 0
11485 1 15.587748715437462 23.39875079461928 3.104491748756383 0 0 0
28280 2 14.028887306227075 22.49884335483855 4.663352636015758 0 0 0
11487 1 18.705185960528567 23.398721688118002 3.1044980152701425 0 0 0
11490 1 21.822641369636415 23.398831580403304 3.104488235465898 0 0 0
28248 2 23.381464001419946 22.498849306063065 4.663359988415474 0 0 0
11492 1 24.94023155884895 23.398790706703593 3.1044562831014124 0 0 0
28247 2 26.49900833243997 22.49883737813107 4.663356542830232 0 0 0
11493 1 28.057771021454467 23.398784848870392 3.1044385500354443 0 0 0
28246 2 29.616543497527047 22.498850706248888 4.663354768559135 0 0 0
11494 1 31.17531112648297 23.39877070177928 3.1044297375059746 0 0 0
11495 1 1.5587490440296308 26.0986499630047 3.1044091097091084 0 0 0
11496 1 4.676287491223186 26.098650533985747 3.104402627481913 0 0 0
28245 2 3.117522775509657 25.198696909466662 4.663312530155845 0 0 0
11498 1 7.793826273564129 26.098649533993417 3.1044103905623164 0 0 0
28244 2 6.235053280214907 25.198705344042597 4.663318829098642 0 0 0
28243 2 9.352590475086991 25.19869604653836 4.6633222200035265 0 0 0
11501 1 10.911367795635865 26.09865430765967 3.10442461227658 0 0 0
28242 2 12.470120152370944 25.19869747382143 4.6633420777157175 0 0 0
11503 1 14.028892133043787 26.09864656033513 3.104442712286185 0 0 0
28241 2 15.587647949494146 25.1987045925466 4.663361228412852 0 0 0
11505 1 17.146434957551698 26.09864888073313 3.104466570921996 0 0 0
28240 2 18.705180527042025 25.198688897459764 4.663367889455574 0 0 0
11507 1 20.264029673568384 26.09859057455106 3.1045061031945504 0 0 0
11508 1 23.381385183999253 26.098597076966815 3.1044923690179176 0 0 0
11510 1 26.49899357398318 26.098651960389727 3.1044294471960776 0 0 0
28239 2 24.940249614312567 25.19870612318103 4.6633556822279765 0 0 0
11511 1 29.61653863882628 26.098643270798945 3.1044061659521116 0 0 0
28249 2 28.05777628321793 25.19870763568024 4.663329556900961 0 0 0
28238 2 31.175313492931615 25.198701584742203 4.6633148504926325 0 0 0
28237 2 1.5587639857178253 27.898556175137358 4.663317450461671 0 0 0
11548 1 3.117517309421108 28.7985179773127 3.104403331078063 0 0 0
28236 2 4.676287510632218 27.898562287466504 4.663308100265293 0 0 0
11583 1 6.235060403643882 28.798513413587756 3.104404169624597 0 0 0
28235 2 7.793818201725553 27.898556475480678 4.6633212315157175 0 0 0
11584 1 9.35259505574018 28.798511662598035 3.10442729324991 0 0 0
11586 1 12.470130284489562 28.798600973495134 3.1044632195985233 0 0 0
28234 2 10.911359228702574 27.898553621078825 4.6633340746550305 0 0 0
11588 1 15.587661025113828 28.798506652861967 3.1044608232101956 0 0 0
28233 2 14.028880622305005 27.89854800466303 4.663350963250506 0 0 0
11590 1 18.705192802651286 28.798502299757164 3.104465175767606 0 0 0
28232 2 17.146423809582146 27.89855615328752 4.663373608918152 0 0 0
28231 2 20.263943225008223 27.898549109323866 4.663378019885034 0 0 0
11592 1 21.82269935388924 28.798513798285118 3.1044702096993957 0 0 0
28230 2 23.3814866596772 27.89856021599458 4.663359304492558 0 0 0
11594 1 24.94023256147772 28.798499659731778 3.1044302185154566 0 0 0
28229 2 26.49901881654938 27.898565969820705 4.663326139894047 0 0 0
11596 1 28.057771980301453 28.79851096188857 3.1043982351322756 0 0 0
28228 2 29.61654938771906 27.89856461698785 4.663299358098513 0 0 0
11597 1 31.175308025345377 28.798510849124817 3.1043789123547616 0 0 0
11598 1 1.558757987537945 31.498463831394016 3.104432875187123 0 0 0
11599 1 4.676294792994714 31.49837341915854 3.104407282727944 0 0 0
28227 2 3.1175232987282167 30.59841933243448 4.663310712516193 0 0 0
11601 1 7.793836207582512 31.498377405222868 3.1044045473453057 0 0 0
28226 2 6.235064852697658 30.59842383202375 4.663312088077034 0 0 0
28225 2 9.352587874082232 30.598430876986285 4.663323886529994 0 0 0
11604 1 10.911444519246372 31.49832472016933 3.1044507950283933 0 0 0
11606 1 14.02881207905806 31.498324940345043 3.1044673319098357 0 0 0
28250 2 15.587644059949485 30.598423338742776 4.663361239723658 0 0 0
11608 1 17.146411198351867 31.498369735837972 3.1044616402955514 0 0 0
28251 2 18.705182642845397 30.598412809956844 4.663365966110802 0 0 0
11610 1 20.26394161800242 31.498463284454456 3.1044853119232663 0 0 0
11581 1 23.381470645725134 31.498370962980136 3.1044437463205488 0 0 0
28252 2 21.822710121806296 30.59842453552029 4.6633639012116985 0 0 0
11580 1 26.499001595780904 31.498371538195652 3.1044034898813484 0 0 0
28279 2 24.94025386206514 30.598417242474444 4.663332264655797 0 0 0
11578 1 29.61654233046508 31.498379346911474 3.1043803362226727 0 0 0
28278 2 28.05778567213493 30.598426014049156 4.663299207785925 0 0 0
28277 2 31.1753171991397 30.5984256895603 4.663280037831031 0 0 0
11359 1 26.499011673927406 42.297826265838665 3.1043603524254584 0 0 0
11553 1 3.117441529316449 34.19818864347773 3.1044222025079726 0 0 0
28276 2 4.676291659705542 33.29829394045977 4.663301286360584 0 0 0
11555 1 6.235048180535061 34.19823890110363 3.104386261112726 0 0 0
28275 2 7.793818110423294 33.298293764899576 4.663300211914707 0 0 0
11556 1 9.352593642382184 34.198224546303464 3.1043910133024024 0 0 0
11558 1 12.470129727869827 34.19823385361204 3.1044167772297273 0 0 0
28274 2 10.911347004521106 33.29828898704969 4.6633146108597066 0 0 0
11560 1 15.587666660894568 34.198227319068685 3.1044279323754997 0 0 0
28273 2 14.028894067589794 33.298288719021286 4.663333080053297 0 0 0
11561 1 18.705266314451087 34.19818574970899 3.1044702433486635 0 0 0
28272 2 17.146417669976827 33.29829174625525 4.6633509853640485 0 0 0
11564 1 21.822626337305454 34.19819053129251 3.1044629505143178 0 0 0
28271 2 23.381484016840957 33.29829379471134 4.663335512301485 0 0 0
11566 1 24.940229842741992 34.19823948745439 3.104411672544507 0 0 0
28270 2 26.49901273864098 33.29828534267224 4.663306884230219 0 0 0
11568 1 28.05777273035817 34.198239178095506 3.1043902531968133 0 0 0
28269 2 29.61655366437776 33.298289189753994 4.6632875180297795 0 0 0
11569 1 31.17531788805445 34.198249168686054 3.104375854212314 0 0 0
11570 1 1.5587578912836328 36.898103468332984 3.1043851797039506 0 0 0
11571 1 4.676287234424711 36.89809140557158 3.1043718454539273 0 0 0
28268 2 3.117530095483451 35.998151218321816 4.663288912298051 0 0 0
11573 1 7.79382500022281 36.89809819619033 3.104368323731219 0 0 0
28267 2 6.235057506392436 35.998154452618486 4.66328271681814 0 0 0
28266 2 9.352588102523137 35.998148717382314 4.663283456954474 0 0 0
11576 1 10.911360044736494 36.89809726758297 3.1043783799073523 0 0 0
28265 2 12.470117554025025 35.99815665252327 4.663304340716414 0 0 0
11482 1 14.02889450117759 36.89809573852242 3.1043977619125633 0 0 0
28264 2 15.58765146696143 35.99814899039371 4.663320998032004 0 0 0
11480 1 17.146429873470893 36.89808995668973 3.104418291568275 0 0 0
28263 2 18.70517632095205 35.99814592074688 4.663339071100229 0 0 0
11384 1 20.263940164853814 36.89810525561159 3.104436216326933 0 0 0
11385 1 23.3814729529483 36.89808990310786 3.1044132932086863 0 0 0
28262 2 21.82271882454952 35.99815076666803 4.663333811369796 0 0 0
11387 1 26.49901073742225 36.898101021616505 3.1043947848536235 0 0 0